/*--------------------------------*- C++ -*----------------------------------*\
| =========                 |                                                 |
| \\      /  F ield         | OpenFOAM: The Open Source CFD Toolbox           |
|  \\    /   O peration     | Version:  5.0                                   |
|   \\  /    A nd           | Web:      www.OpenFOAM.org                      |
|    \\/     M anipulation  |                                                 |
\*---------------------------------------------------------------------------*/
FoamFile
{
    version     2.0;
    format      ascii;
    class       volScalarField;
    location    "2";
    object      p;
}
// * * * * * * * * * * * * * * * * * * * * * * * * * * * * * * * * * * * * * //

dimensions      [0 2 -2 0 0 0 0];

internalField   nonuniform List<scalar> 
322252
(
0.0228096
0.0234586
0.0232031
0.0231725
0.0236027
0.0229321
0.0231574
0.0230839
0.00724863
0.0121726
0.0120032
0.00620435
0.0232961
0.023846
0.0237782
0.0236242
0.0238004
0.0241797
0.0240184
0.0241748
6.09812e-05
-0.0010414
-0.000761896
3.76255e-05
0.0233817
-0.000528687
0.00207828
0.00126614
0.000702435
0.00919682
0.00727974
0.00128763
0.00126482
0.00167891
0.0226581
-0.034182
-0.0469997
-0.0177224
0.0159589
0.000462662
0.0121851
0.0234407
0.0226071
0.00880188
0.0223519
-7.16475e-05
0.0233676
-0.000643544
0.0225977
0.0119767
0.0120966
0.0235348
0.0230209
0.0121108
0.0233657
0.00947571
0.022299
0.023237
0.0121399
0.0235458
0.0231498
0.0225419
0.0229296
0.0234129
0.0240837
0.0233279
0.0245971
0.0239616
0.0246265
0.0233527
0.0245629
0.02458
0.0238626
0.0254629
0.0258853
0.0248319
0.0256774
0.0245987
0.0245961
0.0253507
0.0250479
0.0247616
0.0245832
0.0240628
0.0241178
0.0242827
0.0240984
0.0241566
0.0247045
0.0243731
0.0252947
0.0241998
0.0247167
0.0250257
0.0250835
0.0243283
0.00785613
0.0243449
0.024716
0.0235948
0.0124375
0.0245851
0.0250676
0.0250876
0.00894859
0.0121618
0.0244555
0.0254525
0.0242407
0.00969885
0.0238946
0.00821742
0.0119008
0.0249504
0.0245843
0.0249833
0.0239094
0.0249052
0.024684
0.00219162
0.0249714
0.0118687
0.0244491
0.024206
0.024355
0.0241477
0.0252494
0.024144
0.00792759
0.0240775
0.0244704
0.0238479
0.0241029
0.00813826
0.0235931
0.0124283
0.00613408
0.0237967
0.0233542
0.00608407
0.00606108
0.0232066
0.00586255
0.0235899
0.0237607
0.022805
0.0233983
0.0103857
0.0107094
0.0236879
0.00887255
0.0231679
0.0238465
0.0130279
0.0113917
0.0181778
0.0157321
0.00739658
-0.00196181
0.00783794
0.0234716
-0.000687887
0.0248413
0.00771548
0.0221646
0.021832
0.0235815
0.0218931
0.0232967
-0.00707789
-0.00720134
-0.00764669
0.00749997
0.00977497
0.00960831
0.0083854
0.023985
0.0397632
0.0233181
0.0075363
0.0400717
0.0262457
0.0232073
-9.32016e-05
0.0141108
0.0200636
0.0237352
0.0235983
0.0239976
0.00452131
0.0234102
0.032331
0.0279246
0.00819618
0.00692688
0.00807813
0.00815683
0.0137999
0.0127885
0.00800509
0.0123415
0.0120454
0.0250076
0.0243462
0.0244657
0.00160639
0.0247513
0.00151747
0.0247982
0.024764
0.0240522
0.0244938
0.0244842
0.0241247
0.0247493
0.0245978
0.023817
0.0236099
0.024933
0.0233583
0.0250186
0.0239828
0.0247258
0.0234625
0.0244432
0.0117627
0.0245613
0.0245758
0.0237521
0.0118335
0.0249982
0.0249879
0.0239747
0.00167722
0.00549661
0.0245552
0.0240247
0.00540376
0.0237154
0.0048053
0.0243324
0.023783
0.0245888
0.0239955
0.02432
0.0242119
0.0242112
0.0241235
0.00568908
0.00479056
0.0247939
0.00734805
0.00804176
0.004904
0.0240351
0.00518665
0.024272
0.00403227
0.0240551
0.0237618
0.00687854
0.00634905
0.0236355
0.0240483
0.0250121
0.0240574
0.0247301
0.0239336
0.0240279
0.0239363
0.0242511
0.0238705
0.00661525
0.0125109
0.0139897
0.0245371
0.0144493
0.0154936
0.00619204
0.00663326
0.0117783
0.0250361
0.00667629
0.00646866
0.00656763
0.00657262
0.00556336
0.00561588
0.00743142
0.00568804
0.0246548
0.00807445
0.00778357
0.00566655
0.0075442
0.00559276
0.00560176
0.0125343
0.0111691
0.0234309
0.0241091
0.0118672
0.0101435
0.00996306
0.0235149
0.0244214
0.0242951
0.0238403
0.0242694
0.0236476
0.0235482
0.0240087
0.0118767
0.0247569
0.0119765
0.0248014
0.0241971
0.024846
0.00974413
0.00977875
0.0236552
0.0241332
0.0243827
0.0236795
0.0241284
0.0245328
0.0245361
0.0244495
0.0096447
0.024496
0.00791476
0.0247531
0.024103
0.0243844
0.0081895
0.00844027
0.0088711
0.0251638
0.023863
0.0236087
0.0245953
0.0242439
0.00825836
0.00862452
0.00820523
0.00713583
0.0064448
0.00834808
0.00775483
0.00797874
0.0103836
0.00962753
0.00762444
0.0237024
0.010216
0.0238347
0.024133
0.0240564
0.011161
0.0108627
0.0113456
0.00916211
0.0242916
0.0228893
0.0104837
0.00942479
0.0132538
0.000820847
0.0238809
0.023652
0.00829809
0.0241365
0.0234567
0.0245236
0.0242183
0.0243406
0.00099825
0.0237122
0.0235276
0.0233102
0.0224823
0.000828862
0.0238168
0.0117789
0.0238352
0.0234948
0.00817672
0.00132919
0.000584494
0.00222257
0.00749314
0.00738242
0.0237441
0.010467
0.00213032
0.0229953
0.0226959
0.00703701
0.00696205
0.0237884
0.0237514
0.00763779
0.0237484
0.0242712
0.0234729
0.0241292
0.0120001
0.00933306
0.0112789
0.0241705
0.0240126
0.024511
0.0237546
0.0109607
0.0237304
0.00233578
0.0240165
0.0232504
0.0228666
0.0234973
0.0233285
0.0238518
0.0236328
0.0231488
0.0138666
0.0240658
0.0236574
0.0111886
0.023303
0.0139363
0.0244592
0.0138799
0.023855
0.0239782
0.0140645
0.0239896
0.0125963
0.0238661
0.0128069
0.0242807
0.00702864
0.0238988
0.0126449
0.00678553
0.0116603
0.0230267
0.0121754
0.00676061
0.023688
0.00927791
0.0073845
0.023249
0.00729165
0.0111947
0.00784431
0.0174118
0.0240113
0.0229953
0.0238432
0.00747395
0.0230423
0.0241137
0.023456
0.0236315
0.0234324
0.0180116
0.0238172
0.0245641
0.0237717
0.0200746
0.0242304
0.0192793
0.02377
0.0234059
0.0237982
0.0233837
0.0231996
0.023784
0.0239957
0.0237481
0.00433396
0.0131444
0.00424187
0.00921487
0.00438294
0.00812864
0.00423265
0.00419996
0.0119267
0.0132662
0.0132519
0.0134134
0.0134545
0.0133167
0.0132635
0.0114745
0.0128393
0.0126921
0.0112002
0.0129972
0.0129123
0.0128471
0.0130983
0.0129607
0.0131333
0.0133774
0.00730516
0.0133425
0.0132641
0.0135491
0.0135971
0.0135064
0.00417113
0.0128297
0.0128708
0.0127872
0.0127031
0.00464509
0.0126458
0.00901817
0.0126074
0.0129551
0.0043749
0.0133378
0.0124601
0.0128573
0.0241551
0.0243987
0.0129837
0.0126853
0.0129896
0.0238721
0.0247825
0.0242566
0.0127919
0.0132774
0.0130025
0.0133646
0.0132793
0.013309
0.013625
0.0132127
0.0131382
0.00769386
0.0241658
0.0133892
0.0123369
0.00809263
0.0130368
0.0133996
0.0105893
0.0105548
0.0129489
0.0129988
0.0127265
0.0129155
0.0129031
0.0126519
0.0129723
0.0128149
0.0123437
0.0124761
0.0127962
0.00897329
0.0090042
0.0114224
0.0127515
0.0127797
0.0121859
0.0121223
0.0120496
0.0127165
0.0124223
0.0123762
0.0110742
0.0200004
0.0123581
0.0126268
0.0127209
0.0127387
0.01238
0.0122057
0.0120304
0.0126184
0.01279
0.0128957
0.0126728
0.0125899
0.0125758
0.01276
0.0124645
0.0126825
0.0131616
0.0128969
0.0126511
0.0127112
0.0126829
0.0128645
0.012804
0.00829214
0.0126118
0.0123165
0.0130518
0.0129058
0.0120626
0.0126938
0.0125053
0.0130287
0.0129206
0.0122064
0.0126952
0.0129227
0.0120367
0.0128849
0.0131126
0.0126384
0.0124484
0.0126799
0.0127391
0.0128191
0.0125461
0.0131062
0.010544
0.0107409
0.0204911
0.0129104
0.0129393
0.0202218
0.0127851
0.0126485
0.02052
0.020631
0.0136729
0.0206306
0.0103217
0.0193818
0.0197116
0.0203198
0.0118014
0.0115091
0.0126219
0.0129563
0.0124857
0.0129415
0.0115788
0.00998376
0.0136597
0.0129294
0.0131481
0.0134659
0.0132094
0.00793679
0.0131834
0.0132036
0.0133115
0.0133616
-0.000324055
0.0129317
-4.95756e-05
0.000527464
0.0123814
0.00758842
0.0172336
0.00906787
0.0172644
0.0170632
0.0132945
0.0118546
0.0119417
0.0182626
0.0132534
0.018356
0.0179694
0.0181998
0.00985239
0.0245023
0.0244913
0.0181186
0.0261917
0.0182327
0.011477
0.0241822
0.0268698
0.0237559
0.0267821
0.0165383
0.0235104
0.0168283
0.0258358
0.0268244
0.0247577
0.0116928
0.00457537
0.0264548
0.00468295
0.0264038
0.0247348
0.0247347
0.0260047
0.0263513
0.0250709
0.0250785
0.0253239
0.0238776
0.024494
0.0249977
0.0253824
0.0249022
0.0257993
0.0265438
0.0258928
0.0259673
0.00830906
0.0258279
0.00476313
0.0263595
0.0245614
0.00830603
0.0257874
0.0108378
0.0114573
0.0114832
0.0260287
0.025003
0.00427338
0.012117
0.0269552
0.0249577
0.012402
0.0104837
0.00759436
0.026258
0.0248952
0.0258595
0.0115136
0.00804209
0.0250171
0.0114824
0.0249389
0.0249494
0.0250709
0.0243702
0.0109718
0.0256455
0.0250977
0.0248634
0.0253368
0.0253968
0.024417
0.0252256
0.0244356
0.0243774
0.0246397
0.0251672
0.0107319
0.0261415
0.0241828
0.0259681
0.0250803
0.0259624
0.010441
0.0114599
0.0264521
0.026213
0.0264959
0.011183
0.0260617
0.0105696
0.0108594
0.0259142
0.0108005
0.0255422
0.025864
0.0259645
0.00952161
0.0112362
0.0247757
0.0256536
0.0252547
0.0257592
0.0255297
0.0253832
0.0244242
0.0246853
0.00988046
0.0252885
0.0249687
0.00388237
0.0038076
0.00397985
0.0110353
0.0108156
0.0248678
0.0264552
0.0102853
0.0243386
0.0259282
0.0243726
0.0247456
0.0256856
0.0248139
0.0239437
0.0262656
0.0115714
0.0111951
0.0121493
0.0242955
0.0259929
0.0238122
0.0247064
0.0239528
0.0120978
0.0120305
0.0238992
0.0125839
0.024371
0.0244688
0.0253436
0.0118887
0.024393
0.0253333
0.024269
0.0246855
0.0246554
0.0252275
0.0274276
0.0260616
0.0254277
0.0261356
0.0264247
0.0249658
0.0264962
0.000860764
0.0253099
0.0255626
0.0257592
0.0255497
0.025061
0.00102919
-0.000133431
-0.000878381
0.0262711
0.0241396
0.0120682
0.0122582
-0.00126114
0.0120674
-0.00075328
0.025112
0.0253926
0.0244588
0.0122248
0.0247436
0.0256509
0.0250333
0.0255964
0.00819017
0.0252242
0.0243347
0.0123559
0.0237995
0.0258645
0.02485
0.0247646
0.0280229
0.0270064
0.0271393
0.0282744
0.0276534
0.0277705
0.0274445
0.0276792
0.0289123
0.0295336
0.0283328
0.0289697
0.0286585
0.0285246
0.0281681
0.0301594
0.0280862
-0.00150555
0.0270923
0.0279887
0.0254833
0.0274613
0.0270286
0.0265411
0.0279487
0.007846
0.0277641
0.0288186
0.0274671
0.00796408
0.0274928
0.00765232
-0.000982831
0.0269527
0.0276511
0.0281381
0.0279598
0.028529
-0.000351563
0.000306581
-0.000232003
0.0269013
0.0273957
0.0287203
0.0278192
0.00784313
0.029715
0.007408
0.0279298
0.0282274
0.0289415
0.028246
0.027493
0.0265806
0.0277281
0.0272603
0.0275796
0.0282848
0.0286709
0.0270842
0.0278381
0.0279882
0.0272155
0.0289225
0.0271321
0.0237987
0.0255573
0.0253184
0.0269752
0.0260204
0.0242605
0.0268359
0.0259484
0.0116184
0.0269274
0.0268049
0.0121404
0.00800606
0.0264942
0.0257293
0.026704
0.0276007
0.0266491
0.0258676
0.0274595
0.0268202
0.0267504
0.0276799
0.0118607
0.0128069
0.0121343
0.0266328
0.028056
0.0259937
0.0119222
0.0119435
0.0247364
0.0245195
0.0260842
0.0122226
0.0243807
0.0265853
0.0259732
0.0257558
0.013868
0.0138525
0.012092
0.0261285
0.0270237
0.00814886
0.0262817
0.00511783
0.025571
0.0115878
0.0254256
0.0049621
0.00735199
0.00809697
0.0256779
0.0105194
0.0266
0.00192333
0.0272945
0.012396
0.0266162
0.0260309
0.0268469
0.0249999
0.0250079
0.0124495
0.0260549
0.026179
0.0254205
0.0268077
0.0253109
0.0264311
0.0115978
0.00232308
0.0126826
0.0285556
0.0255146
0.00821403
0.0262332
0.0121607
0.0253833
0.00989698
0.0264057
0.0100117
0.0122331
0.0126874
0.0251882
0.0261752
0.0115417
0.00825801
0.012745
0.00467775
0.00476703
0.0125042
0.00457178
0.00453303
0.0276607
0.027561
0.0267382
0.0255992
0.0273157
0.0266646
0.0265493
0.0265966
0.0268351
0.0261772
0.0268405
0.00453699
0.00452579
-0.000239229
0.0260935
0.0274696
0.024955
0.0255327
-0.0004269
6.84542e-05
-0.000743979
0.0123318
0.0124398
0.0122489
0.0268209
0.0250459
0.0245984
0.0123814
0.0126029
0.0246719
-0.000118245
0.026074
0.0122854
0.0122243
0.0260161
0.025989
0.0128363
0.0115814
0.012175
0.0123682
0.0211534
0.0245779
0.0279414
0.0267802
0.0261485
0.00819412
0.0258758
0.0206174
0.0265349
0.0208208
0.02534
0.0252977
0.0209364
0.0135486
0.0256481
0.0257212
0.0273813
0.0263997
0.0255515
0.0263902
0.0263394
0.0259766
0.0266596
0.0259249
0.0264292
0.0141539
0.00773301
0.0137572
0.0137042
0.0117815
0.014822
0.0105313
0.0120053
0.0155546
0.0152969
0.0261887
0.0257531
0.0148739
0.0271078
0.0152456
0.00855748
0.0258971
0.0117787
0.0247278
0.024886
0.00941855
0.0250987
-0.000742236
0.0259746
0.0247127
0.025798
0.0258562
0.0244535
0.0259244
0.02475
0.0249263
0.026375
0.0245606
0.0241427
0.0248877
0.025817
0.0257025
0.0257473
0.0253811
-0.00104501
0.0121811
0.0121281
0.0256371
0.0263404
0.0110123
0.0272599
0.0112693
0.0106552
0.0249309
0.0249761
-0.000374196
-0.000906995
0.024525
-0.000931058
0.0251992
0.0114334
0.0106441
0.0058508
0.00570116
0.00609428
0.00608417
0.0116575
0.0109195
0.0239445
0.0117652
0.0113261
0.0239103
0.0117231
0.0116422
0.0243809
0.0240115
0.0124396
0.0231733
0.0238682
0.0238269
0.0235647
0.0118664
0.0234168
0.0254732
0.0234931
0.0234743
0.0243201
0.0245884
0.0251502
0.0240765
0.0256286
0.0247053
0.0235239
0.0257707
0.0247507
0.0245399
0.0251031
0.0239203
0.0249389
0.023292
0.0240624
0.0244663
0.0241693
0.0241007
0.0237919
0.0244617
0.0239913
0.0246832
0.0236948
0.0106786
0.0241688
0.0238597
0.0239659
0.0237259
0.0235361
0.0243039
0.0240173
0.0239089
0.0238186
0.0236407
0.0234153
0.0242937
0.0233912
0.0237703
0.0239573
0.010619
0.0240256
0.0244093
0.0238882
0.0238636
0.0242349
0.0236319
0.0254248
0.0237097
0.0245252
0.0239582
0.0255645
0.0200485
0.0243597
0.0197269
0.0109568
0.010838
0.0257307
0.0246721
0.0254296
0.0233592
0.0240876
0.0228944
0.0257214
0.0111296
0.0256734
0.0257207
0.0244445
0.0258446
0.0118614
0.00936421
0.0121477
0.0113496
0.0109902
0.0240437
0.009914
0.026054
0.0110743
0.0111081
0.0256595
0.0254937
0.011903
0.0101012
0.0118687
0.0247054
0.00837193
0.0100558
0.0247511
0.0225436
0.0107193
0.0105402
0.00989345
0.0113518
0.0242626
0.00190548
0.0251755
0.0244536
0.0248248
0.00198693
0.00199596
0.0117137
0.024552
0.0257234
0.0117384
0.0115054
0.0253738
0.0116282
0.025184
0.00955527
0.024619
0.0109674
0.0113632
0.0112307
0.0258318
0.0109505
0.0108297
0.0105972
0.0110922
0.0115756
0.0258164
0.0258539
0.025658
0.0263345
0.0258911
0.0267709
0.0254859
0.0249939
0.0254787
0.0248991
0.0116232
0.0253946
0.0113347
0.025031
0.0114637
0.0253829
0.025372
0.0252252
0.0259595
0.0254074
0.0260361
0.0255924
0.0256593
0.0256727
0.0110726
0.0254993
0.0251869
0.0258541
0.0256124
0.0257414
0.0255573
0.0257643
0.0113114
0.0257333
0.0108774
0.0253379
0.0257904
0.0254611
0.0257482
0.0272215
0.0258708
0.0247797
0.026922
0.0106174
0.0113804
0.0257109
0.0252124
0.011038
0.0105817
0.0255414
0.0256843
0.0107872
0.0105379
0.0111986
0.0113195
0.011435
0.0247678
0.0239003
0.0247334
0.0110504
0.0115913
0.0244758
0.0118759
0.0246446
0.0247383
0.0242874
0.0113829
0.0251764
0.0253708
0.012142
0.0118748
0.0251605
0.024809
0.0119013
0.0245216
0.0122084
0.00854017
0.0118518
0.0119035
0.02452
0.0243
0.0246876
0.0246107
0.0115182
0.0216866
0.0119451
0.025871
0.0255304
0.0110959
0.011583
0.0253165
0.0261604
0.0237209
0.0255095
0.026231
0.0236361
0.0109784
0.0248125
0.024931
0.0248886
0.024612
0.0249395
0.0107307
0.0118156
0.0108055
0.0114416
0.0244194
0.0258845
0.025118
0.012104
0.00445567
0.00436342
0.0243086
0.00428974
0.024105
0.00438951
0.0112118
0.0121242
0.00240566
0.00978877
0.0253637
0.0101127
0.0252134
0.0249056
0.0246677
0.0250084
0.0252474
0.0249441
0.02544
0.0246712
0.0245235
0.0251816
0.0248222
0.0255007
0.025491
0.0250725
0.0247659
0.0244797
0.0117656
0.0245272
0.0249627
0.0240411
0.00711191
0.00717455
0.00817155
0.0096936
0.0225711
0.0243432
0.0253368
0.025053
0.00822523
0.00840523
0.0252938
0.00970423
0.0249499
0.0241682
0.00976402
0.010794
0.0251248
0.025034
0.00846739
0.0239533
0.024676
0.0250018
0.025174
0.0240792
0.0246876
0.0235909
0.023996
0.0240883
0.0244306
0.0248973
0.0242831
0.0251209
0.0250556
0.0237445
0.0245513
0.0111948
0.021697
0.0113991
0.0211016
0.0239739
0.0211905
0.0252009
0.0247406
0.0247794
0.0253484
0.0238398
0.024512
0.0246965
0.0249571
0.0249088
0.0243711
0.0232638
0.022365
0.0249583
0.0243659
0.0219142
0.0249368
0.0112166
0.0248653
0.0245317
0.0239755
0.0107183
0.0241932
0.0111568
0.0248694
0.0251124
0.0240401
0.0114335
0.0245934
0.0236116
0.00160252
0.00513663
0.00117996
0.011019
0.0246622
0.024199
0.0246705
0.0112929
0.000878841
0.00444287
0.0240378
0.0246082
0.0249325
0.0247432
0.0255831
0.0253249
0.0253485
0.0252537
0.0250846
0.025645
0.0250343
0.0111324
0.000122866
0.0106059
0.00196966
0.0111502
0.00999249
0.0257025
0.0247864
0.0248444
0.0253543
0.0101894
0.0103163
0.0100274
0.0115602
0.0249513
0.0117233
0.0107456
0.0247285
0.0251545
0.0110852
0.0112313
-0.000491986
0.000304839
-0.000533028
0.0242879
0.0252508
0.0249697
0.025281
0.011073
0.0247882
0.0107048
0.0246974
0.010569
0.0253263
0.0252514
0.0257555
0.0106111
0.025332
0.0246268
0.0246846
0.0249612
0.0257192
0.0248182
0.0247141
0.0253169
0.0249891
0.0247634
0.0247013
0.0105283
0.0238034
0.0254947
0.0248625
0.0107145
0.0245456
0.0101486
0.00939264
0.0239696
0.0094682
0.024338
0.0252605
0.00928095
0.0241742
0.00970075
0.0097635
0.011061
0.0242529
0.0250587
0.0253023
0.0110562
0.0243987
0.00335565
0.0105677
0.0248721
0.0246658
0.0110567
0.010931
0.00515742
0.0105878
0.00440029
0.0244565
0.0257599
0.0223296
0.024789
0.0236734
0.0079563
0.00177547
0.0106957
0.00387818
0.0254478
0.0239633
0.0244998
0.024109
0.0251601
0.0247743
0.0241029
0.0115386
0.0102425
0.0247715
0.00975833
0.0109982
0.0101112
0.0247838
0.0107747
0.0247257
0.0244272
0.00760565
0.0107387
0.0105461
0.0236343
0.0101354
0.025176
0.0247623
0.0249265
0.0261921
0.0260845
0.0256803
0.0250835
0.0245816
0.0248532
0.0245221
0.0104811
0.0255114
0.00847845
0.0078474
0.00959888
0.00745075
0.00759168
0.0259224
0.0270779
0.0260347
0.0266328
0.0267596
0.0262191
0.0263958
0.0259356
0.0264507
0.0260277
0.0103706
0.0077721
0.00737598
0.0104775
0.0106846
0.0110736
0.0245866
0.0257424
0.0248623
0.0266108
0.0249421
0.0256565
0.0242514
0.025871
0.0247758
0.0252103
0.0258468
0.025628
0.0256009
0.0250714
0.0248796
0.0253549
0.0259165
0.0259945
0.0264364
0.00763955
0.0260102
0.02693
0.0259532
0.0261457
0.0104939
0.0268808
0.0106457
0.0103894
0.0266516
0.0111743
0.0254721
0.0117864
0.0278054
0.0265624
0.0282502
0.0272271
0.0280931
0.0275922
0.0271226
0.0268395
0.0287478
0.0289927
0.0119496
0.0286913
0.028444
0.0290709
0.0115683
0.0116144
0.0116867
0.0103995
0.0266044
0.0272587
0.0271775
0.010317
0.0284604
0.0100205
0.0283145
0.028145
0.0296844
0.00729195
0.0069657
0.0285198
0.0285826
0.0280442
0.0292325
0.0280037
0.0286526
0.028893
0.0282569
0.0285558
0.0281123
0.0274001
0.0281076
0.0284263
0.0286692
0.0296011
0.0290541
0.0283408
0.0281273
0.0284636
0.0271523
0.0274013
0.0103812
0.027984
0.0268494
0.0277714
0.0283355
0.0281883
0.0278227
0.028933
0.0105553
0.0268347
0.0273022
0.0265731
0.0276784
0.0273492
0.0289265
0.0273476
0.0278861
0.0281583
0.0264398
0.029789
0.0289155
0.0261967
0.0290718
0.0287548
0.0118502
0.0294514
0.0292228
0.028851
0.0292244
0.0301767
0.0281382
0.0287197
0.0263269
0.027166
0.0281229
0.0115551
0.0277583
0.0106788
0.0295017
0.0283232
0.0293788
0.027994
0.0296391
0.0281049
0.0298362
0.0277513
0.0107964
0.0284973
0.0290945
0.0296374
0.0283729
0.0287288
0.0282224
0.0287961
0.0310468
0.02932
0.0290639
0.028873
0.0281961
0.0285426
0.0287078
0.0300449
0.0273975
0.0272906
0.028117
0.028069
0.0270952
0.0291789
0.0288851
0.0278854
0.0281047
0.0286208
0.0281585
0.0281424
0.0284458
0.0273338
0.0272729
0.0294273
0.0286347
0.0284137
0.0285695
0.0283635
0.0282602
0.0281513
0.0291852
0.0277451
0.00979671
0.0262925
0.00713335
0.0072011
0.00200438
0.00292517
0.00243677
0.00436828
0.0109252
0.0277059
8.28184e-05
0.00553275
0.00515681
0.00610347
0.00555558
0.0057075
0.0273644
0.0283023
0.0279741
0.0100098
0.0291134
0.0281653
0.0293206
0.0281353
0.0266222
0.0259565
0.0257434
0.0263119
0.0274897
0.0265869
0.0262364
0.0272196
0.0261894
0.0268896
0.00511761
0.026698
0.00138016
0.0258707
0.00461393
0.0256381
0.0117309
0.0110651
0.0111013
0.0252393
0.0106701
0.0143301
-0.0019963
0.0143869
0.0106713
0.00588455
0.0104822
-0.000819605
0.0103601
0.00991674
0.0104979
0.00986889
0.0255238
0.0105168
0.0267419
0.0114258
0.0280481
0.0283553
0.0280876
0.0301708
0.0248176
0.0241463
0.0294157
0.0112543
0.0311385
0.0253098
0.0310107
0.0249243
0.0116648
0.0242818
0.025036
0.0312347
0.0247685
0.0114137
0.0252316
0.0114583
0.0117567
0.0249691
0.0114353
0.0124894
0.0124659
0.00789475
0.0252985
0.0251989
0.0108102
0.0071837
0.0225585
0.0246583
0.012905
0.00718826
0.0121548
0.0106239
0.0101653
0.0126949
0.0126354
0.0257942
0.0129937
0.0134203
0.0139471
0.0132443
0.0258155
0.0247842
0.0248483
0.0251676
0.0245194
0.0259801
0.0252415
0.00807164
0.0257001
0.0257981
0.0244142
0.0252388
0.0255645
0.0263041
0.0252615
0.0250711
0.024698
0.0137969
0.0243009
0.0138418
0.0254134
0.0137465
0.0253314
0.0140876
0.0132831
0.0266428
0.0269099
0.0261157
0.0251688
0.0124296
0.0257643
0.0130994
0.0126965
0.0251211
0.0250104
0.0248289
0.0249557
0.0264243
0.00117428
-0.000235352
-0.000706178
0.0259393
-0.000766821
0.0252038
0.000729001
0.000475919
-0.000526951
0.00039542
0.0257303
0.0254074
0.0246441
0.0247479
0.0249382
0.0254634
0.0254895
0.0262341
0.0257639
0.0256239
0.0252974
0.025391
0.0252806
0.0249962
0.0130182
0.0250751
0.0243512
0.0130615
0.024137
0.0237639
0.0249865
0.0248095
0.0239247
0.0245243
0.00705483
0.0245129
0.000928775
0.0238603
0.00166136
0.0236847
-0.00114375
0.023561
0.024015
0.0244404
0.0123074
0.0243903
0.0240874
0.0239487
0.0235181
0.0242688
0.0135191
0.0239843
0.0240945
0.0240899
0.0248669
0.0253934
0.0245015
0.0240327
0.0131026
0.00844875
0.0110716
0.0243989
0.0249201
0.0241788
0.00986416
0.0116904
0.0235679
0.0241354
0.000141719
0.0326682
0.03251
0.0238244
0.0241968
0.00736428
0.0115069
0.0115754
0.00243559
0.0245771
0.0248729
0.0251632
0.0100285
0.0093429
0.0329218
0.0242273
0.0233256
0.0327911
0.0334701
0.0238738
-0.000645525
0.0241106
0.0115571
-0.000362608
0.0253958
0.0120015
0.0257066
7.64285e-05
0.0254191
0.0117867
0.0263116
0.0113533
0.0115341
0.0117842
0.00339822
0.00945989
0.0125709
0.0114936
0.0261011
0.0263316
0.0254777
0.0116343
0.00730919
0.0247032
0.0191155
0.0260402
0.0252642
0.0256107
0.0252255
0.0253104
0.0248705
0.0257679
0.025157
0.0257762
0.0260247
0.0249339
0.0253657
0.0252324
0.0250487
0.0264597
0.0259452
0.0251237
0.0185529
0.0183392
0.012079
0.0221395
0.021933
0.0219384
0.0219598
0.0222032
0.0251173
0.0155585
0.0257451
0.0259819
0.0155962
0.0152845
0.0259255
0.0257357
0.0114335
0.0121354
0.0101147
0.0261626
0.0258876
0.0148661
0.0258222
0.00719609
0.00899335
0.0119458
0.0115283
0.0134869
0.013805
0.01337
0.0139203
0.00740518
0.000618412
0.0115529
0.0117078
0.0121891
0.0119202
0.000664114
0.0116565
0.000720942
0.00959712
0.00974025
0.0102768
0.0125154
0.00992021
0.0118561
0.0121113
0.0111903
0.0255841
0.0253207
0.0249579
0.0122588
0.00984275
0.0123125
0.0266397
0.0252871
0.0116111
0.00706702
0.00736847
0.0249954
0.00706599
0.00728082
0.00698496
0.00679935
0.00230873
0.0254712
0.0247204
0.0255057
0.0123272
0.00698679
0.0116536
0.00808484
0.0251738
0.0258418
0.0118188
0.0120985
0.00833789
0.000226415
0.0125143
0.0100519
0.00702109
0.012282
0.00172826
-0.000788363
-1.79704e-05
-0.00151335
0.0115752
0.014926
0.0106292
0.0102883
0.0106255
0.00996469
0.00809801
0.00664861
0.00672411
0.00784797
0.00765111
0.0118616
0.0128505
0.0114076
0.0108644
0.0107692
0.0117743
0.0109904
0.0258913
0.0123842
0.0258935
0.00825802
0.0268235
0.0107682
0.0245792
0.0120561
0.0255061
0.0254554
0.00774379
0.0118144
-0.0486385
0.011717
-0.0262024
0.0129816
0.00416981
0.00411537
0.0124325
0.0269117
0.0246826
0.0107831
0.00396763
0.00394671
0.00406971
0.0249907
0.00389592
0.0115738
-0.00595138
-0.00647044
-0.00715825
-0.00593157
0.0251507
-0.00822409
0.0249571
0.0123639
0.025401
0.025821
0.0254866
0.0259145
0.0116666
0.0257377
0.0128718
0.011833
0.0118243
0.0117509
0.0128964
0.0122276
0.0252385
0.0261124
0.0121189
0.0128383
0.0249559
0.0255118
0.0261295
0.0244852
0.0257448
0.0243239
0.0125474
0.0118585
-0.0064154
0.0128935
0.0245173
0.0243537
0.0247684
0.0122938
0.012667
0.0245042
0.0246546
0.0247843
0.0242258
0.0246969
0.0249389
0.0247831
0.0124637
-0.00690134
0.0128789
0.024472
-0.010702
0.0247113
0.012471
0.00579337
0.0134182
0.0127606
0.00686
0.00721544
0.013266
0.0234536
0.0126664
0.00998667
0.0127557
0.0243535
0.0126377
0.00849239
0.025169
0.00970479
0.0123714
0.0245256
0.0233691
0.0250139
0.0123933
0.0242776
0.0247355
0.0253271
0.0256509
0.00989864
0.0250893
0.0124816
0.0251471
0.0100197
0.0246821
0.0407173
0.025392
0.0405336
0.0252198
0.0134027
0.0128499
0.0409356
0.0125038
0.0421613
0.0251292
0.0249303
0.0129581
0.0130474
0.0246737
0.0261785
0.0245441
0.0261244
0.0252009
0.0124763
0.025051
0.0412919
0.0131407
0.0251572
0.0142981
0.0241736
0.0129327
0.0243915
0.013033
0.0122885
0.0245324
0.0242323
0.0246972
0.0129937
0.024957
0.0121094
0.0251999
0.0242899
0.0119177
0.024125
0.0250646
0.0244876
0.02495
0.0124861
0.0250475
0.0119893
0.0119518
0.0248714
0.0252032
0.0122051
0.0246669
0.0141649
0.0136213
0.0250344
0.0141425
0.0141753
0.0248268
0.0252252
0.0252149
0.0125176
0.0133914
0.0255407
0.0249468
0.0257079
0.0257185
0.0254206
0.0255085
0.014207
0.0249086
0.0261801
0.0260076
0.0261033
0.0269135
0.0254055
0.0114089
0.00633964
0.00222317
0.0244242
0.00155109
0.00133111
0.00176603
0.000915876
0.0112409
0.00279362
0.0127285
0.0271036
0.0117286
0.0136255
0.00253441
0.011436
0.0281972
0.0262857
0.0258553
0.0260039
0.0268709
0.0253411
0.0249406
0.0248099
0.027827
0.0263475
0.00722876
0.0137499
0.000147122
0.0268515
-0.000611756
0.0275153
0.027962
0.0289703
0.006863
0.0280321
0.0132324
0.0121253
0.00758222
0.00770577
0.0124888
0.029298
0.028427
0.0291278
0.028266
0.0289169
0.0297189
0.0284936
0.0292872
0.0291594
0.029926
0.0120408
0.00764788
0.00776395
0.00754908
0.011139
0.0286526
0.0288277
0.0283962
0.0279297
0.0280352
0.028408
0.0285373
0.0285636
0.027313
0.027627
0.0262385
0.000430606
0.000211998
0.0208394
0.0274175
0.0275143
0.0262459
0.0262362
0.0256717
0.0292347
0.0256407
0.0276947
0.0263671
0.026911
0.028579
0.0288699
0.0208731
0.0282878
0.0287955
0.0295005
0.0283508
0.029157
0.0119291
0.0207141
0.0290092
0.0281603
0.0122143
0.0111523
0.0131442
0.0132806
0.0135083
0.0134054
0.0309632
0.0299642
0.0135491
0.0133888
5.81391e-05
0.000104147
0.0303607
0.0302241
0.027739
0.0304963
0.0286644
0.0282635
0.0299157
0.0288199
0.028848
0.0124115
0.030388
0.0296966
0.0297695
0.0295937
0.03003
0.0296788
0.0286893
0.0293417
0.0292634
0.0286466
0.0291244
0.0304015
0.0286189
0.0298776
0.029595
0.0294559
0.0299407
0.0292124
0.0305782
0.0285734
0.0294413
0.0293903
0.0291502
0.0291917
0.0288056
0.0120662
0.0294878
0.0281119
0.0292814
0.0290025
0.0127614
0.0298047
0.0300892
0.02862
0.0293409
0.0286582
0.0291597
0.0296446
0.0271148
0.0117905
0.0262446
0.0268275
0.0119034
0.0117262
0.0291477
0.0274163
-0.00193467
0.0269302
0.0277158
0.011246
0.0271574
-0.000745608
0.0265053
0.0116268
0.0114916
0.0114891
0.0130006
0.023086
0.01117
0.0131975
0.0129967
0.0133122
0.00510508
0.0239691
0.0234174
0.0100241
0.0094703
0.00924021
0.011552
0.0112394
0.0108413
0.0233248
0.022996
0.0236318
0.0233334
0.02222
0.0115965
0.0117247
0.0189342
0.0237429
0.0111587
0.0232877
0.0239097
0.02363
0.0116319
0.0242007
0.0232507
0.0232418
0.0187496
0.0108053
0.0233481
0.0235313
0.0235798
0.0231284
0.0232498
0.00783396
0.00833179
0.00902228
0.0087052
0.0116822
0.011678
0.0235531
-0.0186921
0.0233525
0.0232124
-0.0177992
-0.00884288
-0.0084944
0.0235079
0.0231369
-0.0650712
0.0230973
0.0231299
0.0231751
0.0232071
0.0234267
0.0228045
0.0229293
0.0228413
0.0235673
0.0118253
-0.0160338
0.0022808
0.0224
0.00155958
0.0231
0.0224084
0.0220339
0.0229074
0.0225211
0.0224469
0.02298
0.0225304
0.02253
0.0230595
0.023722
0.0233031
0.0114457
0.0117835
0.0113983
0.0235171
0.0231517
0.0150995
0.023078
0.0226944
0.0226282
0.0228445
0.0145379
0.0228145
0.00068611
0.0228657
0.0115883
0.0115448
0.0226993
0.0106274
0.0229607
0.0113862
0.0230132
0.0115027
0.0115395
0.0225399
0.0225702
0.0112085
0.0114513
0.0109265
0.0115731
0.0229029
0.0114251
0.023573
0.000735775
0.000606714
0.0229834
0.000764485
0.0227472
0.022848
0.00109535
0.0114465
0.00617273
0.00617616
0.00636167
0.00626358
0.0118264
0.0240707
0.0115041
0.0236848
0.0240992
0.011195
0.0237352
0.0238865
0.0115675
0.0246846
0.0248047
0.0241904
0.0244374
0.024096
0.0247839
0.0244319
0.0239842
0.0244814
0.00190891
0.0106119
0.0232381
0.00042197
0.0111348
0.0247508
0.0243109
0.0239422
0.0113361
0.024203
0.0113784
0.0113
0.011324
0.0233115
0.0235753
0.0227744
0.00833709
0.0231955
0.0110292
0.0233586
0.00847022
0.0228888
0.00902592
0.0111134
0.0220212
0.0228647
0.0227702
0.0226576
0.0113678
0.011572
0.0229515
0.0227834
0.0227366
0.0112775
0.00863034
0.013453
0.0133116
0.022827
0.0226095
0.0112933
0.0203503
0.0110788
0.0112436
0.0205052
0.0204847
0.00707939
0.0234067
0.0235497
0.0229026
0.0232727
0.0233936
0.023131
0.0237526
0.0232746
0.0233143
0.0233184
0.0113165
0.0230565
0.0110618
0.0113108
0.0109922
0.011359
0.0120092
0.022627
0.0111935
0.0121211
0.0230867
0.0115749
0.00679711
0.0116069
0.0209603
0.0200374
0.0201386
0.0203105
0.0116313
0.0120023
0.0205429
0.0204761
0.020571
0.0233452
0.0111809
0.0234373
0.0122421
0.0114757
0.0112234
0.0112846
0.00932823
0.0230892
0.0207192
0.0241571
0.0193557
0.0196023
0.0197567
0.0234914
0.0230048
0.022885
0.011966
0.0224836
0.0192101
0.0193658
0.0195507
0.011921
0.0127631
0.0118311
0.0117071
0.0234164
0.0231698
0.0233569
0.0116082
0.0118142
0.0230103
0.0232113
0.0228212
0.0233981
0.00963851
0.000558534
0.0179529
0.0234647
0.0233721
0.0234425
0.0239712
0.012442
0.0238318
0.0237043
0.0231985
0.023536
0.0235389
0.0234805
0.0177086
0.0239458
0.0174961
0.000496168
0.00138051
0.0238869
0.0234663
0.0230558
0.0177325
0.0173217
0.0228222
0.0231299
0.0232488
0.0173909
0.0173645
0.0225337
0.0229419
0.0238046
0.0227538
0.0228265
0.0232
0.0229908
0.0230887
0.0173261
0.0237693
0.0125303
0.0238102
0.0232339
0.0239166
0.0127723
0.0123841
0.0122031
0.0236426
0.0238328
0.0235969
0.0230605
0.0239296
0.023982
0.0240034
0.0167449
0.0236716
0.0164846
0.011933
0.0166888
0.00470158
0.00462744
0.00463246
0.00463618
0.00469679
0.00952476
0.023247
0.00444724
0.00442948
0.011529
0.00438328
0.00516918