/*--------------------------------*- C++ -*----------------------------------*\
| =========                 |                                                 |
| \\      /  F ield         | OpenFOAM: The Open Source CFD Toolbox           |
|  \\    /   O peration     | Version:  5.0                                   |
|   \\  /    A nd           | Web:      www.OpenFOAM.org                      |
|    \\/     M anipulation  |                                                 |
\*---------------------------------------------------------------------------*/
FoamFile
{
    version     2.0;
    format      ascii;
    class       volVectorField;
    location    "2";
    object      wallShearStress;
}
// * * * * * * * * * * * * * * * * * * * * * * * * * * * * * * * * * * * * * //

dimensions      [0 2 -2 0 0 0 0];

internalField   uniform (0 0 0);

boundaryField
{
    septal
    {
        type            calculated;
        value           nonuniform List<vector> 
7808
(
(1.45319e-06 -1.47896e-06 5.24855e-07)
(-8.72388e-07 -2.42881e-06 8.8577e-07)
(-1.99272e-06 -4.42354e-06 -7.86161e-07)
(-1.46124e-06 -4.58692e-06 1.20439e-07)
(-3.24039e-07 -3.98739e-07 1.19255e-06)
(-1.73554e-06 -1.81338e-06 1.44809e-06)
(-1.24707e-06 -2.40259e-06 5.23716e-07)
(-1.34565e-07 3.47789e-07 1.47435e-06)
(-7.88727e-07 2.92878e-06 -1.20556e-07)
(2.36477e-06 -1.36781e-06 7.45274e-07)
(1.54526e-07 2.91709e-06 -2.28589e-06)
(-2.11392e-07 -1.09068e-06 1.01747e-06)
(-7.6846e-08 -4.36328e-06 -2.25748e-06)
(4.72988e-07 -1.18727e-06 -1.73621e-06)
(1.08853e-06 -2.35141e-07 -1.34692e-06)
(6.11334e-07 1.10701e-06 2.73175e-08)
(5.55167e-07 2.02109e-06 -5.13823e-07)
(9.76146e-08 5.04635e-06 1.44945e-06)
(2.436e-06 9.9901e-07 -5.66555e-07)
(4.006e-06 2.54554e-07 2.49346e-06)
(9.44641e-07 4.67311e-07 -2.57169e-08)
(-4.92369e-07 -2.54877e-06 8.72742e-07)
(1.2862e-06 3.17757e-06 8.81779e-07)
(4.84712e-07 5.01411e-07 -7.92719e-07)
(-2.13103e-08 6.88318e-07 8.36197e-07)
(4.68777e-07 2.23124e-06 1.9357e-07)
(-1.45961e-06 -1.78885e-06 2.4014e-06)
(-1.40343e-06 -6.76593e-07 1.72591e-06)
(-1.30616e-06 -2.4872e-06 2.24837e-06)
(1.83699e-06 3.37561e-06 -3.40203e-07)
(5.54305e-07 2.54036e-06 7.47641e-08)
(-1.60423e-06 2.04828e-06 -1.24501e-06)
(-1.5098e-06 3.29091e-07 1.12461e-06)
(-1.4931e-06 -1.68639e-06 1.41327e-06)
(8.23571e-07 3.01143e-06 5.67544e-07)
(1.49673e-06 -1.98436e-06 7.3861e-07)
(1.55851e-07 2.15926e-06 9.27662e-07)
(1.6673e-06 -1.82163e-06 1.15125e-06)
(2.04034e-06 -4.57128e-07 -1.26872e-06)
(-8.12983e-07 -1.40546e-06 -2.09323e-06)
(2.94757e-06 -2.88508e-06 1.60838e-07)
(1.49286e-06 1.67361e-06 -9.24944e-07)
(1.11898e-06 -7.93405e-07 2.45616e-07)
(2.61941e-06 3.27821e-06 -4.14552e-07)
(1.07438e-06 7.20952e-07 -4.43536e-07)
(5.8267e-06 -2.30616e-05 9.20619e-06)
(5.28057e-07 1.63477e-06 1.91259e-07)
(-2.00414e-06 3.32846e-06 -8.37504e-07)
(2.74918e-06 1.52336e-05 -4.67873e-06)
(-3.22915e-07 -7.92017e-07 6.86126e-07)
(-1.34704e-06 4.59939e-07 -5.11594e-07)
(-3.31814e-08 -6.16734e-07 -5.59064e-07)
(4.13461e-06 -1.42155e-05 -2.27853e-07)
(1.33665e-05 -6.92133e-05 -2.29535e-05)
(1.06732e-05 -9.45232e-05 -1.48468e-05)
(-5.89025e-07 9.38603e-07 1.9334e-06)
(1.3214e-06 -2.41848e-06 6.88404e-07)
(2.17025e-07 5.08709e-07 -2.70643e-07)
(2.74683e-07 3.81098e-07 1.25463e-07)
(7.64677e-07 -1.22884e-06 -1.00236e-06)
(-2.65885e-07 9.14805e-06 1.4228e-06)
(1.27172e-05 2.20518e-05 2.46559e-06)
(1.14391e-06 7.50698e-08 5.27108e-07)
(-2.95506e-07 9.28718e-07 -5.41923e-07)
(-3.02137e-07 -1.67704e-06 -2.80979e-06)
(-1.32427e-06 2.22237e-06 -3.87841e-08)
(-4.38474e-07 4.26815e-06 -3.43541e-07)
(-6.70272e-07 2.52722e-06 -8.40637e-07)
(4.19435e-07 6.47091e-07 2.28921e-07)
(-7.10648e-07 -1.20353e-06 3.75393e-07)
(-6.95202e-07 -6.09886e-07 4.56143e-07)
(2.49728e-07 2.14781e-08 1.33576e-07)
(-5.75458e-09 -9.65664e-07 -6.06187e-07)
(4.31318e-07 -3.4336e-07 -2.13053e-06)
(3.7281e-07 8.75398e-07 -3.82447e-07)
(1.33084e-07 9.49061e-08 -1.73099e-07)
(-3.85935e-08 5.31048e-07 -2.54756e-08)
(4.7294e-07 1.00207e-06 -8.13636e-07)
(-6.86882e-07 8.25342e-07 1.93299e-07)
(-6.33246e-08 1.07389e-06 -5.64968e-07)
(3.65918e-08 -3.40185e-07 -4.24357e-07)
(-3.45443e-07 1.2907e-05 -8.32333e-06)
(-2.16147e-06 3.01265e-06 1.695e-06)
(-2.71556e-06 9.67728e-06 -1.75268e-06)
(8.52312e-06 -3.54206e-06 -9.90701e-08)
(3.83781e-06 9.58737e-06 -3.19583e-06)
(4.03059e-06 7.19232e-06 7.86426e-08)
(5.32087e-08 3.76086e-06 -1.93587e-06)
(4.59785e-06 -5.64493e-06 -2.58144e-06)
(1.03824e-06 1.06172e-06 -1.92196e-06)
(-2.81503e-06 5.00051e-06 -4.25448e-08)
(-2.52482e-06 1.9039e-06 -9.41593e-07)
(-4.2958e-06 -9.58875e-07 1.66079e-06)
(4.64512e-06 -2.96061e-06 -3.17655e-06)
(5.35858e-06 -7.69697e-06 1.22934e-06)
(1.04889e-06 2.38996e-06 1.0297e-06)
(1.73253e-06 6.10684e-06 -2.94193e-06)
(4.09657e-06 5.63348e-06 -4.1515e-06)
(5.79663e-06 7.60975e-06 5.65856e-07)
(-3.80298e-06 6.9826e-06 -8.81282e-06)
(4.40481e-06 -1.1856e-05 -3.86978e-06)
(2.10856e-06 1.27972e-05 -5.45899e-06)
(-6.66446e-06 1.35696e-05 -9.48564e-06)
(-7.62084e-06 1.2197e-05 -6.44863e-06)
(7.16872e-06 -5.4439e-06 -2.51181e-06)
(-4.55231e-06 1.07534e-05 -2.9476e-06)
(-1.75407e-06 2.47036e-06 4.47661e-07)
(2.37219e-07 1.16571e-06 3.84746e-06)
(2.22767e-06 -5.22456e-06 6.94425e-06)
(-1.76278e-06 6.65909e-06 4.81787e-06)
(1.54827e-06 -3.05936e-06 3.05933e-06)
(5.96365e-06 1.14415e-05 4.44337e-06)
(5.17386e-06 -5.10274e-06 4.52134e-06)
(-2.16559e-06 2.24084e-06 -7.66474e-07)
(-2.61746e-06 4.51237e-06 -5.9176e-07)
(3.9575e-07 2.57083e-06 -4.48143e-07)
(-8.91847e-07 1.93022e-06 1.10964e-07)
(-8.23506e-07 2.49453e-06 1.30379e-06)
(8.80672e-07 -3.26175e-06 1.70076e-06)
(4.25383e-07 1.21946e-06 1.10344e-06)
(-2.88906e-06 3.11358e-06 -1.49945e-06)
(-7.70175e-07 7.97847e-07 -6.15645e-07)
(-2.5125e-06 -1.26469e-06 5.75631e-07)
(-1.74185e-06 2.7595e-06 -6.26821e-08)
(-4.00163e-06 -9.46959e-06 -1.86751e-06)
(7.90712e-06 1.42786e-06 -4.04696e-07)
(-3.85723e-07 -3.39423e-06 3.48837e-06)
(2.90832e-06 1.12192e-05 2.48115e-06)
(2.44784e-06 8.54117e-06 2.90471e-06)
(1.98606e-06 -4.21131e-06 5.13429e-06)
(1.88591e-06 3.78578e-06 2.53094e-06)
(2.04677e-06 4.09946e-06 2.01934e-06)
(8.1905e-07 2.48886e-06 1.59523e-06)
(3.31142e-06 -2.69979e-06 1.94404e-06)
(-1.44135e-06 7.79524e-06 -5.48716e-07)
(-3.64058e-06 6.05779e-06 -2.95488e-06)
(-7.70052e-06 9.11002e-06 -8.21546e-07)
(6.6939e-06 -1.44715e-06 -2.56286e-06)
(-7.40236e-06 -2.54728e-06 4.68007e-06)
(2.39189e-09 1.44829e-06 2.63104e-07)
(1.03305e-06 2.30632e-06 1.47716e-06)
(9.17969e-07 2.3673e-06 -4.72855e-07)
(-1.16081e-06 1.23678e-06 -1.01721e-07)
(1.73466e-07 1.39233e-06 1.89039e-07)
(-6.27584e-08 2.23423e-06 3.83334e-07)
(3.20414e-07 2.0698e-06 7.10039e-07)
(1.59682e-06 -7.46554e-07 4.03451e-07)
(4.88355e-07 6.07841e-08 -5.41786e-07)
(3.7029e-07 1.13326e-06 1.04259e-06)
(2.03571e-06 1.49211e-06 1.28254e-06)
(8.49999e-07 3.12675e-07 2.67201e-07)
(1.30771e-06 1.60537e-06 -3.83344e-07)
(-2.24917e-07 2.5512e-06 -5.89904e-07)
(1.41051e-06 1.82652e-07 7.67088e-07)
(9.2572e-07 1.7988e-06 5.10675e-07)
(8.33221e-07 1.6438e-06 7.50009e-07)
(5.81403e-07 2.66147e-06 -2.09126e-07)
(1.52547e-06 -1.36035e-06 4.89833e-07)
(2.69881e-07 5.7028e-07 6.47337e-07)
(-4.15193e-08 9.76563e-07 9.78815e-07)
(2.80321e-06 4.9689e-07 3.14124e-07)
(9.03125e-07 1.28492e-06 5.45062e-07)
(1.14562e-06 3.39942e-06 6.62461e-07)
(1.57599e-06 1.56338e-06 4.61642e-07)
(2.47711e-06 2.05575e-06 1.00641e-06)
(1.51617e-06 -2.54264e-06 4.44025e-08)
(1.14168e-06 6.00611e-07 9.39448e-07)
(1.88959e-07 2.65674e-06 9.86855e-07)
(1.14424e-06 -3.35149e-06 3.32864e-07)
(1.40127e-06 -8.33985e-07 -3.65942e-07)
(-9.17541e-07 1.59934e-06 -2.93692e-07)
(6.53355e-07 1.8238e-06 1.29678e-06)
(8.17703e-07 1.97566e-06 -4.7183e-07)
(1.12735e-06 7.75512e-07 1.37532e-07)
(1.09158e-06 1.98506e-06 -4.46097e-07)
(1.32507e-06 2.07164e-06 5.79457e-07)
(1.10958e-06 -2.12183e-06 2.36126e-07)
(-8.09723e-08 2.35772e-06 1.07854e-06)
(-6.9972e-07 3.74776e-06 -6.29981e-08)
(-5.61038e-07 2.76961e-06 -3.31935e-07)
(2.47858e-06 -1.10132e-06 1.05692e-06)
(9.74102e-07 1.07025e-06 1.52473e-06)
(1.66778e-06 1.25445e-06 1.39771e-06)
(-7.74339e-07 3.94099e-06 -9.15141e-07)
(2.05706e-06 -1.41127e-06 2.12471e-07)
(1.23126e-06 6.35423e-07 1.40477e-06)
(1.65723e-06 -9.93966e-08 3.98446e-07)
(2.09256e-06 -8.13828e-07 5.68452e-07)
(1.17851e-07 2.33347e-06 -6.99688e-07)
(1.31499e-06 3.10855e-06 -3.70747e-07)
(2.38848e-06 -2.85966e-06 -2.75568e-07)
(7.02758e-07 2.256e-06 3.44936e-07)
(1.5285e-06 1.7605e-06 2.32733e-06)
(-5.96346e-07 8.90486e-07 5.57001e-07)
(2.64986e-06 4.35181e-08 5.37486e-07)
(7.86212e-07 3.57548e-06 -8.72133e-08)
(1.56878e-06 -2.65815e-06 8.353e-07)
(-1.18578e-06 2.88848e-06 -9.95582e-07)
(-5.34195e-07 2.56505e-06 -7.03847e-07)
(2.61374e-06 -1.08556e-06 7.17933e-07)
(8.08972e-07 3.31739e-06 -1.02782e-07)
(8.91158e-07 -9.54302e-08 3.29543e-07)
(9.11197e-07 3.74856e-07 1.11454e-08)
(4.52345e-07 2.87442e-07 8.94877e-07)
(-5.94791e-07 -1.74376e-06 4.09607e-07)
(1.10606e-06 6.05462e-07 -3.1683e-07)
(1.16516e-06 7.64034e-08 -2.80782e-07)
(4.47799e-07 3.03587e-06 9.4114e-07)
(-2.98458e-07 -3.27515e-06 8.3704e-07)
(1.04959e-06 8.49739e-07 8.06181e-07)
(9.15008e-07 -6.18277e-07 2.01343e-07)
(-1.16762e-07 -3.78036e-07 2.75949e-07)
(-4.33559e-07 -1.23373e-06 4.39055e-07)
(-5.7314e-07 3.93443e-07 5.44152e-07)
(7.27695e-07 8.50522e-07 1.41016e-07)
(5.68188e-07 1.38367e-06 8.57006e-07)
(-8.53656e-08 -2.78167e-06 5.19147e-07)
(-3.91103e-07 1.29121e-07 9.92873e-08)
(2.3304e-07 1.94257e-06 1.21293e-06)
(4.81246e-07 -2.15217e-07 1.0357e-07)
(-1.1872e-08 -1.47528e-07 -9.3757e-07)
(-6.99819e-07 1.56263e-06 -9.02614e-07)
(3.90001e-07 -7.90559e-07 -9.38682e-07)
(3.29108e-07 4.08236e-07 6.08721e-07)
(-2.67723e-07 7.71604e-07 -4.07843e-07)
(-1.55592e-07 1.86237e-06 1.61788e-06)
(7.73643e-08 -2.31589e-07 5.73501e-07)
(1.65024e-06 -1.20181e-06 3.27012e-07)
(1.04294e-06 1.12678e-06 6.21325e-07)
(1.41493e-06 2.19783e-06 6.3459e-07)
(4.34114e-07 3.59627e-06 -5.71675e-07)
(1.61106e-06 1.84494e-07 6.76582e-07)
(7.57938e-07 -1.02102e-07 2.98086e-07)
(-4.95116e-07 -1.15388e-06 -2.11097e-07)
(1.41582e-07 1.22634e-07 -5.15711e-07)
(-8.2369e-07 1.52445e-07 -9.05618e-07)
(-4.08087e-07 -3.46263e-06 7.11877e-07)
(8.37244e-07 -3.48277e-07 5.5841e-07)
(-4.40369e-07 1.01288e-06 1.53029e-06)
(-8.36291e-07 -1.46649e-06 5.6779e-07)
(-2.94405e-07 3.04277e-07 2.35696e-07)
(-4.46497e-08 -7.96524e-08 8.40307e-07)
(1.21356e-06 9.58759e-07 4.54742e-07)
(2.82728e-07 -4.47076e-07 -3.79729e-07)
(7.56899e-07 -2.27899e-07 -3.54912e-07)
(-7.00427e-08 1.88362e-06 -1.06106e-06)
(-7.5823e-07 2.5365e-06 5.44097e-07)
(3.62124e-07 5.01324e-07 3.34843e-07)
(-5.3679e-07 -1.65205e-06 4.73102e-07)
(3.55811e-06 -1.22231e-06 8.11315e-06)
(-7.03612e-06 1.97488e-05 -6.74877e-07)
(-4.01734e-06 8.83027e-06 -2.88069e-06)
(-1.41836e-06 1.65198e-05 3.46875e-06)
(5.10767e-06 9.16045e-06 2.43906e-06)
(-1.98717e-06 -1.3976e-05 4.53132e-06)
(6.45914e-06 1.20507e-05 4.28846e-07)
(1.16648e-06 -6.7497e-07 -9.0094e-08)
(2.19588e-06 -1.25723e-06 5.41695e-07)
(1.38785e-06 -5.78433e-07 4.71311e-07)
(8.50349e-07 2.36147e-06 4.18135e-07)
(1.44486e-06 -1.81505e-06 7.58147e-07)
(2.42091e-06 -1.0771e-06 6.05124e-07)
(2.2886e-06 -1.72739e-06 6.03004e-07)
(1.40736e-06 2.68873e-06 1.12833e-07)
(2.03002e-06 -6.1075e-07 4.04565e-08)
(1.95242e-06 -2.99284e-08 3.79098e-07)
(1.24449e-07 1.68337e-06 -2.68648e-07)
(7.57431e-07 3.27666e-06 6.95709e-07)
(1.24057e-07 2.87249e-06 4.68215e-07)
(1.10946e-06 2.5282e-06 1.00266e-06)
(2.30539e-06 -1.33474e-06 6.4218e-07)
(9.77517e-07 2.24337e-06 -3.48853e-07)
(1.25567e-06 2.22265e-06 7.74477e-07)
(2.68911e-06 2.37082e-07 -1.20076e-07)
(1.57054e-06 -1.66036e-06 4.36364e-07)
(9.53378e-07 -3.35379e-07 5.8073e-07)
(1.24173e-06 5.08549e-07 6.36879e-07)
(4.65435e-07 1.68288e-06 -4.51309e-07)
(1.75583e-06 -1.142e-06 3.49031e-07)
(1.03253e-06 -3.34398e-07 6.94553e-07)
(3.08197e-07 -4.27388e-08 2.82256e-07)
(5.23452e-07 1.69751e-06 -2.20173e-07)
(3.81458e-07 -3.40416e-07 3.7126e-07)
(1.10047e-06 1.93215e-06 4.59606e-07)
(1.43529e-07 -2.175e-06 5.51276e-07)
(2.75037e-06 7.21282e-07 3.4938e-07)
(7.4862e-07 -5.96494e-07 1.21954e-06)
(1.13248e-06 -1.46429e-06 -4.95845e-07)
(2.45179e-06 -5.98637e-07 1.64902e-07)
(9.833e-07 1.85578e-06 1.20124e-07)
(6.85597e-07 -1.69033e-06 1.29396e-07)
(8.93187e-07 -9.71763e-07 2.88548e-08)
(1.08516e-06 -2.84314e-06 1.76833e-08)
(1.57335e-06 1.67318e-06 1.35704e-06)
(1.03715e-06 4.88949e-08 5.33048e-07)
(1.75739e-06 -1.19489e-06 2.31175e-07)
(1.38419e-06 -3.21023e-06 7.0016e-07)
(2.05557e-06 2.4401e-06 -7.0592e-07)
(4.77714e-07 2.68897e-06 4.6225e-07)
(1.74101e-06 -1.92527e-06 4.55435e-07)
(1.81073e-06 2.69659e-06 8.02784e-07)
(1.34949e-06 1.26642e-06 8.34107e-07)
(8.77215e-07 3.66473e-06 2.5541e-07)
(1.29983e-06 2.77191e-06 -2.82718e-07)
(6.62388e-07 3.91193e-06 2.84027e-07)
(2.28088e-06 -2.1568e-06 2.57948e-07)
(5.36253e-07 2.50553e-06 7.57132e-07)
(4.12918e-07 2.05104e-06 -2.10436e-07)
(2.54344e-06 1.66975e-06 5.56298e-07)
(2.04695e-06 -1.33522e-06 1.86251e-07)
(-3.26036e-07 3.03939e-06 1.66556e-07)
(9.41364e-07 3.28185e-07 1.50525e-07)
(2.14044e-06 2.87815e-07 -4.71365e-08)
(1.3338e-06 1.43328e-06 9.48091e-07)
(9.01704e-07 2.46187e-06 1.29599e-07)
(-7.06491e-07 2.84116e-06 8.72487e-09)
(2.84676e-06 -1.44933e-06 7.55648e-07)
(2.11525e-06 -1.47761e-06 1.28272e-06)
(1.31358e-06 -2.60837e-06 -9.24527e-08)
(2.02747e-07 3.55114e-06 -1.54239e-07)
(5.92759e-07 5.08158e-06 -1.1352e-06)
(1.63077e-06 -4.14768e-09 9.80057e-07)
(1.25283e-06 6.76437e-06 1.49801e-06)
(2.49324e-06 6.21613e-06 -2.25064e-07)
(1.90635e-06 8.49802e-08 4.21514e-06)
(9.44749e-07 -5.27962e-06 1.73097e-06)
(-1.37919e-06 -4.02303e-06 2.08596e-06)
(1.91983e-06 6.23392e-06 2.87179e-06)
(2.62135e-06 2.03713e-06 3.94196e-06)
(1.24083e-06 4.3408e-06 4.20527e-06)
(1.25477e-06 7.46394e-06 2.7594e-06)
(-6.51497e-07 -1.48579e-06 -3.49507e-06)
(-4.9515e-07 -1.76711e-06 -1.44036e-06)
(1.06877e-06 6.16746e-07 -1.29569e-06)
(4.05824e-08 3.56758e-06 -1.19246e-06)
(-1.43527e-06 1.47069e-06 -1.09811e-06)
(-1.03139e-06 -1.35232e-06 -1.34122e-06)
(9.73341e-07 -8.01404e-07 -6.91709e-07)
(-1.02528e-06 -1.66159e-07 3.87844e-06)
(5.87077e-07 4.23995e-06 2.18156e-06)
(-3.12603e-06 1.82779e-06 -1.79349e-06)
(1.45262e-06 -2.09771e-06 2.38555e-06)
(-8.08273e-07 3.77001e-06 -1.87899e-06)
(-1.08236e-07 4.37439e-06 6.12733e-07)
(-1.13976e-07 5.56792e-07 -9.06118e-08)
(1.17114e-06 8.29273e-07 4.27701e-06)
(1.31121e-06 4.87568e-07 -2.5229e-06)
(-8.88768e-07 4.77996e-06 -7.89273e-07)
(1.28868e-06 -5.06881e-06 2.42486e-06)
(2.11684e-06 4.12206e-06 3.31634e-06)
(3.99495e-06 2.51674e-06 2.84105e-06)
(-2.03772e-06 -6.51176e-08 8.73992e-07)
(3.15438e-06 3.58269e-06 1.02485e-06)
(8.22968e-07 -4.99637e-06 1.66612e-06)
(-6.00982e-07 6.43394e-06 5.54537e-07)
(-2.41566e-06 6.84289e-06 -9.28729e-07)
(-2.32582e-08 -2.83924e-06 3.91036e-06)
(9.87062e-07 6.56078e-07 -2.79315e-06)
(6.86005e-09 4.90284e-06 -7.03343e-07)
(2.00372e-06 -2.83205e-06 1.21599e-06)
(1.98142e-06 3.48283e-06 2.99089e-06)
(-6.32739e-07 5.49682e-07 3.5973e-06)
(4.48851e-07 -6.50659e-06 1.27643e-06)
(2.47202e-06 1.03355e-06 1.06677e-06)
(-2.21303e-08 -1.76331e-06 -5.46415e-07)
(1.02899e-06 5.77179e-07 3.29411e-06)
(3.10803e-06 1.14007e-06 1.59704e-06)
(-4.35815e-07 -7.10322e-06 2.47188e-06)
(5.82343e-06 1.06608e-06 3.90696e-06)
(-1.28029e-06 9.43735e-06 4.27187e-07)
(5.87091e-07 -2.98333e-06 2.01427e-06)
(-9.42871e-07 2.38519e-06 -1.30303e-06)
(3.29148e-07 4.41426e-07 -1.25802e-06)
(7.41522e-08 1.45141e-06 1.15345e-07)
(2.06543e-07 2.702e-08 5.53845e-07)
(7.9859e-07 -1.34309e-06 -2.65016e-07)
(5.4161e-07 2.72193e-06 8.96459e-07)
(7.69499e-07 2.73763e-06 1.20729e-06)
(-3.61408e-07 4.24907e-07 -1.09239e-07)
(1.26024e-06 -1.21122e-06 -5.2854e-07)
(-7.7512e-07 -1.84939e-06 3.11479e-07)
(4.37506e-07 1.56591e-06 1.07718e-06)
(-4.7211e-07 1.84618e-06 -6.19901e-07)
(1.68415e-06 7.73938e-07 8.67875e-07)
(2.24911e-08 1.75736e-06 -2.7366e-08)
(-4.43515e-07 1.69907e-06 5.07184e-07)
(-1.65514e-08 -3.56401e-07 7.04911e-07)
(1.69899e-06 -1.91478e-07 3.70874e-07)
(1.38517e-06 8.659e-08 2.41066e-07)
(-5.97377e-07 3.65803e-07 -1.15058e-06)
(-6.4104e-07 9.38939e-07 -9.00385e-07)
(-1.77902e-07 -6.6756e-07 4.47554e-07)
(5.55647e-07 3.52402e-06 9.44157e-07)
(4.51135e-07 -1.06078e-06 -1.08554e-06)
(6.76439e-07 5.52773e-07 2.81164e-07)
(4.30603e-07 -1.27331e-06 -7.48984e-07)
(-4.30641e-07 1.04272e-06 1.47241e-07)
(2.25053e-07 2.36636e-06 8.05883e-07)
(-3.02019e-07 -1.53727e-07 2.50725e-07)
(2.01695e-06 1.22932e-07 1.3377e-06)
(2.92238e-07 -5.30985e-07 2.66649e-06)
(1.37859e-07 -2.02835e-07 3.07672e-07)
(4.0872e-07 7.10263e-07 7.62459e-07)
(-4.12284e-07 9.77463e-07 5.69329e-08)
(-8.64915e-07 9.26167e-07 -1.78121e-07)
(-4.69363e-07 3.01332e-06 -1.172e-06)
(8.66555e-07 -7.24426e-07 -1.07659e-06)
(-1.45126e-06 1.16287e-06 -6.21537e-07)
(1.202e-06 -5.19105e-07 -1.44689e-06)
(-7.18331e-08 3.1643e-07 -7.7669e-07)
(1.9809e-08 1.29536e-06 -6.79633e-07)
(-1.03389e-07 6.66195e-07 2.2583e-07)
(-2.63358e-07 1.30331e-07 2.02214e-07)
(1.14538e-06 -9.9987e-07 4.37799e-07)
(9.98217e-07 6.70719e-07 1.61776e-06)
(5.98593e-07 1.47294e-06 -1.31021e-06)
(-6.21066e-07 1.39346e-06 2.39356e-07)
(-9.21345e-07 1.93759e-06 2.44655e-07)
(4.42216e-07 -1.37862e-06 1.78819e-06)
(-6.69686e-07 -1.81503e-07 -1.11639e-06)
(-5.74921e-07 -5.54948e-07 1.36021e-06)
(-4.98799e-08 1.94588e-06 -5.26787e-07)
(2.45609e-06 -1.50169e-06 1.60614e-06)
(-4.47786e-07 2.81646e-06 -5.1721e-07)
(9.53192e-07 2.31776e-06 -1.0051e-06)
(1.0882e-06 -1.59499e-06 2.70289e-06)
(8.83156e-07 2.70261e-06 6.98739e-07)
(4.68901e-07 -1.06055e-06 -5.32363e-07)
(1.95156e-06 -1.45979e-06 4.8064e-07)
(7.44829e-07 2.74586e-06 -1.78608e-07)
(3.1803e-06 6.8146e-07 -4.00317e-07)
(3.45673e-06 4.52517e-06 9.93033e-07)
(6.35146e-06 -2.11527e-06 -1.49517e-06)
(-3.60852e-06 8.5204e-06 1.28944e-06)
(3.95845e-06 1.08456e-06 -2.01339e-06)
(1.31588e-06 -5.00306e-06 1.00133e-06)
(1.94537e-06 -4.20193e-06 2.99602e-06)
(2.36719e-06 4.68007e-06 8.85848e-08)
(1.89387e-06 4.40909e-06 1.87911e-06)
(1.97925e-06 7.1812e-06 -1.6563e-09)
(1.7564e-06 8.19059e-07 -8.95675e-07)
(-5.37998e-07 8.78755e-07 -1.04453e-06)
(-1.1148e-06 2.71605e-06 2.79832e-07)
(6.71262e-07 2.33659e-06 -1.72024e-06)
(-3.85437e-07 3.40961e-06 -7.9528e-07)
(2.48512e-07 1.62317e-06 -3.10822e-07)
(2.87835e-07 -2.00701e-07 -8.16751e-07)
(7.23888e-07 2.65452e-06 -1.55587e-06)
(-1.68075e-07 9.62173e-07 -1.70119e-07)
(-8.27405e-08 2.22929e-06 -7.06262e-07)
(-6.8942e-08 -5.26465e-07 -1.2407e-06)
(-1.93519e-07 -1.24254e-07 -2.64131e-07)
(1.21768e-06 7.18535e-07 -1.26213e-06)
(1.34059e-07 1.87477e-07 2.13488e-07)
(-7.7987e-07 1.60186e-06 5.15155e-07)
(-3.87142e-07 -3.40523e-08 -4.34034e-07)
(1.20987e-06 6.27102e-07 -1.00776e-06)
(-6.37489e-07 7.39329e-07 1.85119e-07)
(-6.60894e-07 3.56323e-06 5.54498e-07)
(3.94533e-07 3.84759e-07 1.50051e-07)
(-1.50697e-07 2.10164e-06 -6.04814e-07)
(-1.08575e-07 1.97199e-08 -9.36196e-07)
(-1.92583e-06 1.67738e-06 -8.75542e-07)
(-4.08351e-07 -1.75781e-06 -1.93496e-06)
(5.29917e-07 1.99938e-06 -3.1849e-08)
(-3.19796e-07 -1.33341e-06 -9.4256e-07)
(6.82106e-07 -6.8594e-07 -1.58642e-07)
(-5.09521e-07 -1.78071e-06 -8.23394e-07)
(-1.27955e-06 2.6299e-06 2.21963e-06)
(4.39694e-07 1.8238e-06 -2.91855e-07)
(-1.63806e-08 5.38198e-07 -1.8342e-06)
(-2.07715e-07 1.21947e-06 3.36585e-07)
(1.08265e-07 3.57563e-06 -3.92179e-06)
(1.39022e-07 7.52878e-06 3.28851e-06)
(-3.86289e-07 2.7197e-06 -1.14852e-06)
(1.26438e-06 -3.70834e-07 -6.66874e-07)
(4.04565e-07 1.24653e-06 4.02796e-07)
(5.93267e-07 -1.67747e-07 3.46186e-07)
(6.53066e-07 -1.03064e-06 3.3265e-07)
(6.19818e-07 1.22096e-06 2.23609e-07)
(-1.34518e-08 4.86546e-07 6.87e-07)
(2.15324e-07 8.64414e-08 6.78469e-07)
(1.52226e-06 -2.14548e-07 9.07447e-07)
(3.42914e-07 -8.43111e-07 2.25232e-07)
(8.89804e-08 1.69948e-06 1.24514e-06)
(-2.93093e-07 1.65337e-06 1.24183e-07)
(-2.65018e-08 2.37178e-07 8.2166e-07)
(2.99154e-07 -9.54763e-07 1.20016e-06)
(2.91527e-07 -1.45191e-06 7.46673e-07)
(8.42953e-07 7.3732e-07 1.21131e-06)
(1.19294e-06 7.4626e-07 7.21976e-07)
(1.20502e-07 1.73636e-06 -9.07121e-08)
(8.29938e-07 -9.20854e-07 6.03241e-07)
(4.21857e-07 6.79683e-07 6.55315e-07)
(5.77327e-07 -2.18466e-07 3.9396e-07)
(1.37043e-07 1.01758e-07 9.55463e-07)
(1.14745e-06 9.09291e-07 1.1396e-06)
(-5.01851e-07 1.82776e-06 5.6936e-07)
(4.3742e-07 1.695e-06 -8.47093e-07)
(1.56979e-07 9.25817e-07 5.37229e-07)
(3.55611e-07 6.87395e-07 8.80672e-08)
(-4.46407e-07 2.49141e-06 7.83559e-08)
(4.49881e-07 -9.35845e-07 1.17519e-06)
(1.27499e-06 1.08579e-06 6.78504e-07)
(2.8775e-07 -1.83214e-06 9.25554e-07)
(-8.21546e-07 1.08714e-06 -1.32999e-11)
(4.22108e-07 9.37011e-07 1.23842e-07)
(1.04666e-06 -7.28958e-08 2.40834e-07)
(8.41059e-07 -4.42649e-07 2.40632e-07)
(6.73143e-07 -8.93316e-07 3.95995e-07)
(4.15189e-07 9.13135e-07 2.71369e-07)
(1.19578e-06 -5.60345e-07 2.6205e-07)
(3.11453e-07 4.36377e-07 -4.75813e-07)
(-2.61509e-07 3.39128e-07 6.73163e-07)
(-8.41012e-08 1.95272e-06 -1.49371e-07)
(-3.09089e-07 -4.34681e-07 -6.88298e-09)
(1.34828e-07 -7.47324e-08 4.53667e-07)
(-1.03464e-08 8.03436e-07 1.39389e-07)
(8.81742e-07 9.87932e-07 3.75963e-08)
(1.20543e-06 -1.42408e-06 3.38768e-07)
(9.56426e-07 6.36821e-07 -6.09421e-08)
(5.04825e-07 1.81462e-06 4.55309e-07)
(2.81052e-06 -4.84388e-06 3.01473e-06)
(5.49834e-07 9.2958e-07 1.06514e-07)
(5.81973e-07 7.00753e-07 -1.33439e-07)
(3.91693e-07 2.52731e-06 5.3713e-08)
(8.34703e-07 -6.49442e-07 1.09435e-07)
(6.36758e-07 4.82648e-07 1.35436e-06)
(-5.49047e-08 -9.48414e-07 8.86956e-07)
(9.48481e-07 -1.22186e-06 1.84559e-06)
(-5.83018e-07 1.58437e-06 3.13297e-07)
(9.98459e-08 -8.63733e-07 7.55511e-07)
(9.67207e-07 1.30266e-06 1.31215e-06)
(1.16324e-06 -8.3999e-07 4.87338e-07)
(6.35897e-09 3.20208e-07 8.57603e-07)
(7.70698e-07 -5.96648e-07 2.66777e-07)
(4.29382e-08 -6.29424e-07 -5.21303e-07)
(-2.1734e-07 7.591e-07 -8.13976e-07)
(-2.89135e-07 -9.25759e-07 -3.5986e-07)
(-9.09402e-07 1.45659e-06 -3.44633e-07)
(4.64034e-06 -6.18498e-06 -6.20833e-07)
(2.72863e-06 8.74519e-06 2.81322e-06)
(3.71411e-06 9.09474e-06 5.33218e-07)
(8.31016e-06 1.03156e-05 4.99529e-06)
(-6.82559e-08 1.24365e-06 -1.56552e-06)
(1.28685e-06 -2.94915e-06 -1.72154e-06)
(-2.77999e-06 4.27407e-06 6.77213e-06)
(-4.49891e-06 2.90826e-06 1.60947e-06)
(-2.00984e-07 6.29202e-06 2.21759e-06)
(1.99407e-06 -1.40039e-06 -4.18444e-06)
(-6.0771e-06 9.1346e-06 6.21895e-06)
(-1.03942e-05 1.52515e-05 2.19359e-06)
(6.43388e-06 -7.14276e-06 4.16928e-06)
(3.48554e-06 1.88732e-06 3.74864e-06)
(4.66604e-06 -6.69897e-06 2.95553e-06)
(8.21922e-06 -9.28856e-06 1.96338e-06)
(4.40201e-06 1.16396e-05 1.77066e-06)
(-6.82449e-06 8.14438e-06 1.32716e-06)
(4.55115e-07 -3.85491e-06 -9.36712e-07)
(2.42725e-06 2.08055e-06 7.1207e-06)
(-4.24904e-06 4.24294e-06 2.28934e-06)
(-3.44214e-06 1.45876e-06 8.53574e-07)
(6.89891e-07 2.70949e-06 -2.13873e-07)
(-1.01667e-06 -8.42655e-07 -3.44317e-06)
(-3.83366e-06 2.97855e-06 5.692e-07)
(4.43171e-07 7.57437e-06 -4.5848e-07)
(-1.98343e-06 3.42349e-06 -6.96702e-07)
(-2.72588e-06 7.52522e-06 -2.15918e-06)
(5.91426e-06 -4.91021e-06 3.99717e-06)
(1.46001e-06 4.57325e-06 5.0187e-06)
(-2.88428e-06 5.88189e-06 -2.0997e-06)
(1.54889e-06 6.80778e-06 -3.73066e-06)
(-3.50827e-06 8.12859e-06 -1.9665e-06)
(-1.48923e-06 -5.90146e-06 -6.49365e-06)
(-4.01711e-06 4.68302e-06 -7.05141e-06)
(6.1365e-06 -1.27723e-05 1.40644e-06)
(7.45051e-06 -5.6422e-06 3.43628e-06)
(3.26771e-06 3.26627e-06 4.02774e-08)
(-1.9092e-06 -1.92022e-06 6.34964e-06)
(-2.9646e-07 8.00491e-06 4.63983e-06)
(-1.76571e-06 3.59073e-06 1.24383e-07)
(-2.37965e-06 4.4069e-06 -3.52306e-06)
(1.59578e-06 5.42539e-06 6.53265e-07)
(-9.33901e-06 1.07024e-05 1.39576e-06)
(-3.7954e-06 5.21511e-06 -4.14527e-06)
(1.66642e-06 -3.80477e-06 2.39018e-06)
(4.66549e-07 3.75429e-06 -5.04133e-06)
(2.17039e-06 2.33291e-07 -2.09679e-06)
(-1.62465e-06 -7.35454e-06 5.37612e-06)
(2.28988e-06 4.95229e-06 5.43702e-07)
(3.66623e-06 -9.61277e-07 6.23476e-07)
(2.67745e-06 -4.61251e-06 8.24745e-07)
(4.09571e-06 -4.10774e-06 8.31396e-07)
(1.05068e-06 6.62881e-06 -1.61509e-06)
(5.17681e-07 -3.3475e-07 2.5243e-06)
(-9.06014e-07 -2.54825e-06 -2.44609e-08)
(-7.91862e-07 -1.17182e-06 -4.99611e-07)
(1.45865e-06 3.29119e-06 1.3881e-08)
(1.3955e-06 3.12413e-06 3.59334e-06)
(3.91551e-06 3.08587e-06 1.00354e-06)
(3.44338e-06 -6.6861e-06 2.06442e-06)
(4.67894e-06 4.48355e-06 -2.19348e-07)
(3.38846e-06 6.72992e-06 -1.32164e-07)
(6.67844e-06 3.82657e-06 -2.85976e-07)
(-9.24504e-07 3.90984e-06 -1.9297e-07)
(1.84014e-06 -3.43913e-06 4.44841e-07)
(1.17332e-06 -8.36745e-07 -1.42457e-06)
(-9.14066e-07 -2.27475e-06 -1.40557e-06)
(-2.42811e-06 8.64184e-06 2.81998e-06)
(2.44243e-06 -1.58362e-06 9.96603e-07)
(2.25694e-06 3.79481e-06 -1.02798e-06)
(3.76009e-06 3.33695e-06 1.79418e-06)
(2.68882e-06 1.538e-06 1.71051e-06)
(3.5082e-06 -2.48564e-06 2.79544e-07)
(7.86902e-07 -2.55188e-06 3.62328e-06)
(-3.3437e-06 7.18829e-06 -2.65775e-07)
(1.36349e-06 -3.25314e-07 2.00173e-06)
(3.58674e-06 1.03406e-06 1.19309e-06)
(2.54753e-07 6.1182e-07 1.59498e-06)
(-2.1721e-06 5.55121e-06 1.7623e-06)
(1.15039e-06 -1.74658e-06 2.18226e-06)
(4.43873e-08 3.95491e-07 1.06781e-06)
(2.76732e-06 -4.17354e-06 2.59465e-06)
(1.59099e-07 3.2769e-06 -4.64263e-07)
(1.72506e-07 3.00694e-06 2.42052e-07)
(6.40488e-07 8.79056e-07 5.77741e-07)
(2.64479e-06 -6.8934e-06 3.43466e-07)
(4.25669e-07 1.07918e-06 6.5864e-07)
(1.98039e-06 -2.65681e-07 -9.0444e-07)
(-1.50789e-07 3.84697e-06 -1.0185e-06)
(1.7318e-06 -6.35042e-07 9.76907e-07)
(4.38406e-06 2.14941e-06 8.78248e-07)
(3.08119e-07 1.83213e-06 9.11653e-07)
(3.05875e-06 2.92202e-06 6.25788e-07)
(1.50571e-06 7.76905e-08 1.51939e-07)
(1.92375e-06 -2.56705e-06 3.73435e-07)
(2.35175e-06 5.13689e-06 1.15939e-07)
(2.26596e-06 1.30888e-06 2.9532e-06)
(2.86418e-06 3.02134e-06 2.53488e-06)
(8.27829e-07 -4.57591e-06 1.97358e-06)
(5.05934e-08 4.90268e-06 -1.18459e-06)
(5.22368e-07 2.76089e-06 9.67444e-08)
(4.70245e-07 4.8855e-06 2.28405e-06)
(4.5425e-06 1.83705e-06 7.76822e-07)
(1.22059e-06 -9.762e-07 -8.22724e-07)
(2.93287e-06 -2.23672e-06 1.44433e-06)
(-6.29929e-07 -1.48665e-06 2.21199e-06)
(3.34369e-06 4.67841e-06 9.75622e-07)
(2.43612e-06 2.4174e-06 -2.47657e-06)
(2.75069e-06 -3.87567e-06 2.20681e-06)
(2.22797e-06 -3.49181e-06 7.16407e-07)
(5.33956e-06 -2.33086e-06 3.71001e-06)
(1.82017e-06 7.24798e-07 -4.25923e-07)
(-3.94854e-07 -2.49818e-06 1.34611e-06)
(-3.03316e-07 1.31063e-06 3.43975e-07)
(1.28831e-06 3.39669e-06 1.5514e-06)
(2.35846e-06 1.38635e-06 2.35609e-06)
(2.86237e-06 5.66124e-07 2.59084e-06)
(-2.82422e-06 3.90353e-06 -1.50648e-06)
(2.15002e-06 4.35631e-07 1.25308e-06)
(6.91881e-07 -3.18976e-06 -4.09888e-07)
(1.26826e-06 5.99283e-06 -1.45489e-06)
(-9.74182e-07 7.74916e-06 -1.54047e-07)
(-2.22873e-07 5.05186e-06 -3.86329e-07)
(1.86879e-06 1.53107e-06 7.5094e-07)
(2.82485e-06 -1.61421e-06 1.45245e-06)
(2.79014e-06 -2.49686e-06 8.30546e-08)
(-1.82066e-06 2.97172e-06 4.78367e-07)
(1.96157e-06 3.56307e-07 1.27862e-06)
(7.14069e-07 -2.76673e-06 -8.79715e-08)
(2.07208e-06 -4.72035e-06 1.52638e-06)
(4.46249e-06 2.47999e-06 -6.81307e-08)
(3.27549e-06 3.84486e-06 -1.43735e-06)
(2.3537e-06 9.37288e-07 3.53952e-06)
(2.01718e-06 -5.06242e-06 -8.97009e-08)
(4.9873e-06 4.23629e-07 1.53862e-06)
(1.89656e-06 -3.69073e-06 -1.45406e-06)
(9.79301e-07 5.96324e-06 -1.18159e-06)
(-8.04264e-07 -4.36312e-06 1.68511e-06)
(-2.61136e-06 2.43029e-06 2.26665e-06)
(5.20442e-07 -4.38683e-07 8.90627e-07)
(2.49197e-06 3.69212e-06 -1.68026e-07)
(-3.48073e-06 3.88787e-06 1.14716e-07)
(-1.03977e-06 4.64233e-06 -5.97679e-07)
(9.42497e-07 6.28667e-06 -1.23644e-06)
(4.21305e-06 1.88227e-06 1.14618e-06)
(3.8959e-06 -2.14134e-07 1.12669e-06)
(2.09304e-06 4.77128e-06 -1.08813e-06)
(3.08399e-06 -1.79901e-06 1.79915e-06)
(3.95404e-07 2.8119e-06 -1.26111e-06)
(2.6627e-06 -2.75521e-06 2.92337e-07)
(5.75683e-07 1.01003e-07 2.02163e-07)
(-5.69124e-07 -2.00567e-06 -2.81274e-07)
(2.10904e-06 5.10182e-07 2.76958e-06)
(-2.23033e-06 2.92196e-06 3.71411e-07)
(9.49442e-07 -1.60703e-06 9.19414e-07)
(4.26683e-06 4.04235e-06 -2.1343e-07)
(5.70422e-07 2.63344e-06 -6.83125e-07)
(8.98165e-07 -5.82271e-06 1.15399e-06)
(1.58864e-06 -3.98641e-06 1.68343e-06)
(1.76348e-06 -3.11297e-06 7.75086e-07)
(2.4749e-06 -2.50767e-07 -6.07923e-07)
(1.10455e-06 5.27713e-06 -1.754e-06)
(-1.08601e-06 -5.78964e-06 -2.59276e-08)
(3.8052e-07 5.61582e-07 -1.52797e-07)
(4.91674e-06 -1.14808e-06 2.83948e-07)
(7.3712e-07 7.9552e-07 -1.51483e-06)
(7.45607e-07 -2.57787e-06 1.81258e-07)
(2.20035e-06 2.3692e-06 1.0304e-06)
(1.3435e-06 5.02511e-06 -9.57705e-08)
(1.63336e-06 -3.85519e-06 1.47683e-06)
(3.95324e-06 -3.30904e-06 2.50698e-06)
(3.75872e-06 -2.55017e-06 1.44787e-06)
(-9.52323e-08 -5.1677e-06 -1.90758e-07)
(4.53912e-06 7.48448e-07 4.53266e-07)
(-6.08091e-07 1.8621e-06 -2.00914e-07)
(3.86407e-06 -4.0329e-06 2.81485e-06)
(-4.45895e-08 -2.09676e-07 -1.9202e-07)
(-5.36951e-07 3.41189e-07 3.78958e-07)
(-3.24106e-08 -3.48322e-07 -1.11018e-06)
(1.11684e-06 -6.01358e-07 -1.08359e-07)
(2.00941e-06 -2.49905e-06 2.2629e-07)
(6.95977e-07 6.49064e-07 -2.02859e-08)
(2.75183e-06 9.39843e-07 5.32821e-07)
(2.98643e-07 5.97448e-06 -5.79658e-07)
(-1.20272e-08 2.3558e-06 -2.57359e-07)
(1.24855e-07 8.05795e-07 -1.52407e-06)
(8.95934e-07 6.75174e-07 -9.0316e-07)
(-1.76566e-07 3.07412e-06 -1.10944e-06)
(1.44203e-06 9.71396e-07 1.16704e-06)
(2.54971e-06 4.70454e-07 3.61591e-07)
(2.91853e-06 -1.89652e-06 -1.39931e-06)
(-2.63492e-07 4.35559e-06 -1.15022e-06)
(3.00744e-07 6.01923e-06 -5.79519e-07)
(3.70562e-06 -2.62247e-06 -2.14974e-06)
(-3.13274e-08 4.63798e-06 1.06793e-06)
(1.20192e-07 4.98776e-06 8.46901e-07)
(2.1846e-06 -1.96547e-06 -2.72054e-06)
(1.54262e-06 -1.90791e-06 -1.45184e-06)
(1.89929e-06 -9.57083e-07 -5.73334e-07)
(1.5342e-06 -6.04906e-07 -7.38678e-07)
(7.73636e-07 3.13986e-06 -1.48308e-06)
(-1.08693e-06 8.74201e-07 -2.65981e-06)
(1.93594e-06 2.01169e-06 -1.08381e-06)
(-1.61615e-06 3.30362e-06 -5.38703e-07)
(-1.1514e-06 -5.13213e-06 -1.80188e-06)
(2.34138e-06 -2.07918e-07 -1.77524e-06)
(5.93947e-07 6.87944e-07 1.17557e-06)