/*--------------------------------*- C++ -*----------------------------------*\
| =========                 |                                                 |
| \\      /  F ield         | OpenFOAM: The Open Source CFD Toolbox           |
|  \\    /   O peration     | Version:  5.0                                   |
|   \\  /    A nd           | Web:      www.OpenFOAM.org                      |
|    \\/     M anipulation  |                                                 |
\*---------------------------------------------------------------------------*/
FoamFile
{
    version     2.0;
    format      ascii;
    class       volScalarField;
    location    "1";
    object      p;
}
// * * * * * * * * * * * * * * * * * * * * * * * * * * * * * * * * * * * * * //

dimensions      [0 2 -2 0 0 0 0];

internalField   nonuniform List<scalar> 
322252
(
-0.0535671
-0.0547709
-0.054613
-0.0545539
-0.0541826
-0.0538303
-0.0543306
-0.054218
-0.00180801
-0.0170834
-0.0146666
0.00260275
-0.05501
-0.0567178
-0.056543
-0.0576942
-0.0570926
-0.0577768
-0.0591041
-0.055903
0.00178152
0.00129589
0.00153056
0.000304007
-0.0542037
0.00141187
0.0164783
0.0172761
0.0193015
-0.00707938
-0.00205471
0.0179413
0.0175869
0.0171445
-0.0522975
0.022965
0.0135863
0.0402365
-0.0314277
0.0206794
-0.0170935
-0.0533422
-0.0517586
-0.00682984
-0.05157
0.0182291
-0.0530812
0.0181972
-0.0526786
-0.01673
-0.0153769
-0.0547279
-0.0540631
-0.015232
-0.0533728
-0.00857227
-0.0525981
-0.0533168
-0.0155591
-0.0541448
-0.0532712
-0.0523272
-0.0523249
-0.0550688
-0.0589704
-0.0565573
-0.0586011
-0.0571729
-0.0577867
-0.0582467
-0.0570736
-0.0577652
-0.0596917
-0.0635663
-0.0607421
-0.0606141
-0.060819
-0.0613526
-0.0607692
-0.0605422
-0.061263
-0.0596313
-0.058844
-0.0589728
-0.0577252
-0.0589564
-0.0589269
-0.0577309
-0.0594194
-0.0607124
-0.0615363
-0.0595558
-0.0612875
-0.0602018
-0.0600649
-0.0598176
-0.00371439
-0.0599223
-0.0596712
-0.0596961
-0.0171806
-0.059698
-0.0628414
-0.0632063
-0.0070918
-0.0167105
-0.0602817
-0.0610933
-0.0606597
-0.00881842
-0.0600475
-0.00343734
-0.0165306
-0.0601003
-0.0588363
-0.0609529
-0.057135
-0.059507
-0.0590074
0.0124229
-0.0592355
-0.0156389
-0.059824
-0.0593756
-0.059396
-0.0578671
-0.060065
-0.0576159
-0.003302
-0.0571652
-0.0583525
-0.056125
-0.0585611
-0.00372031
-0.0563354
-0.0168501
0.00279838
-0.0572208
-0.0548837
0.00287435
0.0026974
-0.0557703
0.00342242
-0.0552944
-0.0554312
-0.0536699
-0.0537889
-0.0126227
-0.0123703
-0.0567378
-0.100824
-0.0547927
-0.0564362
-0.13227
-0.01528
-0.0995792
-0.0870117
-0.00269457
0.00847601
-0.00361627
-0.0550839
0.00704107
-0.057648
-0.00273943
-0.0499714
-0.0500845
-0.0574054
-0.0500738
-0.055783
0.0416233
0.0396593
0.0369491
-0.00300137
-0.00995145
-0.0101866
-0.00367534
-0.0573551
-0.120122
-0.0555297
-0.0028569
-0.122903
-0.0630802
-0.0551242
0.0177769
-0.0214788
-0.041495
-0.0559471
-0.0552091
-0.0563549
0.00775026
-0.0556319
-0.0922763
-0.07823
-0.00420263
-0.000650231
-0.0037965
-0.00380278
-0.021597
-0.0195248
-0.00359723
-0.0214877
-0.0214997
-0.0603779
-0.0587613
-0.0590341
0.016003
-0.0581524
0.0168069
-0.0596474
-0.0609425
-0.0590659
-0.057684
-0.0582628
-0.0587773
-0.0593421
-0.0588549
-0.05688
-0.0580195
-0.0595286
-0.0571922
-0.0597592
-0.0581926
-0.0589222
-0.0565032
-0.0589581
-0.0157976
-0.0594511
-0.0603383
-0.0583238
-0.0158113
-0.0601032
-0.059775
-0.0576735
0.0165839
0.00217328
-0.0576961
-0.0577546
0.00246605
-0.0572264
0.00341138
-0.0592756
-0.0584549
-0.058879
-0.057402
-0.0590687
-0.0561502
-0.0585614
-0.0567963
0.00277522
0.00683977
-0.058347
-0.00304994
-0.00268442
0.00616059
-0.056673
0.00609406
-0.0580278
0.00645566
-0.0582807
-0.0566144
-0.00103603
0.000625444
-0.0571245
-0.0572859
-0.0597955
-0.0571055
-0.0586871
-0.0581827
-0.0578821
-0.0584016
-0.0577164
-0.0578338
-0.00107808
-0.0251536
-0.0250097
-0.0581096
-0.025615
-0.0264738
0.000670818
0.000199687
-0.0155872
-0.0612519
0.000212967
0.000538089
-1.31659e-05
0.000483656
0.00332912
0.00356212
-0.00286175
0.00328516
-0.0589477
-0.00460437
-0.00262126
0.00322601
-0.00236435
0.00367843
0.00415828
-0.0164752
-0.0126699
-0.0561255
-0.0564594
-0.0165138
-0.0115677
-0.0128415
-0.056035
-0.0581668
-0.0574437
-0.0572785
-0.0566665
-0.0566612
-0.0563458
-0.0560514
-0.0158489
-0.058334
-0.0166565
-0.0596994
-0.0584206
-0.0606806
-0.0065801
-0.00804498
-0.0575535
-0.059046
-0.059646
-0.0576719
-0.0579126
-0.0583463
-0.0596507
-0.0588625
-0.0065664
-0.0583592
-0.00364583
-0.0577175
-0.0576855
-0.0582074
-0.0059258
-0.00633777
-0.00759282
-0.0602671
-0.0565205
-0.0561952
-0.0573474
-0.0590884
-0.00331157
-0.00459002
-0.00372938
-0.00294655
0.00100752
-0.00359048
-0.00398075
-0.00474731
-0.010239
-0.0113592
-0.0030442
-0.0569246
-0.010882
-0.0567052
-0.0567206
-0.0563043
-0.0146492
-0.0147639
-0.0152505
-0.00849573
-0.0576252
-0.0551927
-0.0111027
-0.00991287
-0.0192548
0.0183666
-0.0576653
-0.0581485
-0.00436466
-0.0561355
-0.0570614
-0.0578469
-0.0576671
-0.0588646
0.0165069
-0.054538
-0.0544743
-0.0557728
-0.0534898
0.0161482
-0.0557614
-0.0157158
-0.0562268
-0.0552288
-0.00556055
0.0156922
0.016371
0.0122334
-0.00197571
-0.00127723
-0.0562924
-0.00994458
0.0114129
-0.0554657
-0.0549387
-0.000533785
-0.00115675
-0.0552395
-0.0559103
-0.00190284
-0.0569197
-0.0566718
-0.0561952
-0.057427
-0.0162161
-0.00863382
-0.0139507
-0.0559893
-0.0568162
-0.057701
-0.0577693
-0.0131771
-0.0580449
0.012381
-0.0557131
-0.0559859
-0.0546301
-0.0562882
-0.0553465
-0.0567175
-0.0548225
-0.054081
-0.0209972
-0.0565074
-0.057237
-0.0139093
-0.055221
-0.0212398
-0.0571123
-0.0210608
-0.0584097
-0.0581815
-0.0214193
-0.0560646
-0.018944
-0.0572788
-0.0197368
-0.0588981
-0.000429081
-0.0543341
-0.0186432
0.000439181
-0.0158992
-0.055005
-0.0157522
-0.00055797
-0.0559831
-0.00733784
-0.00102446
-0.0540252
-0.00181886
-0.013639
-0.00269848
-0.0368382
-0.0560539
-0.054162
-0.0557095
-0.00219812
-0.0536757
-0.0557305
-0.0558924
-0.0565746
-0.0556958
-0.0358276
-0.0565938
-0.0572312
-0.0568669
-0.0395826
-0.0570485
-0.0392441
-0.0556076
-0.054631
-0.0571546
-0.0569402
-0.0549078
-0.056331
-0.0569977
-0.0555165
0.00802042
-0.0183805
0.00807133
-0.00708642
0.00803713
-0.00383273
0.00855812
0.00874189
-0.0164542
-0.0190804
-0.0187905
-0.0191786
-0.0191998
-0.0190871
-0.0196719
-0.0140445
-0.0180723
-0.0175136
-0.015225
-0.0180348
-0.0179478
-0.0179003
-0.018349
-0.0181105
-0.0188099
-0.0193206
-0.00135498
-0.0187995
-0.0190845
-0.0193532
-0.0198794
-0.019705
0.00877815
-0.0174693
-0.0179212
-0.0173197
-0.0172661
0.00701835
-0.0176763
-0.00671796
-0.0177876
-0.0183521
0.00735596
-0.0185235
-0.017662
-0.0181313
-0.0585297
-0.0582209
-0.0188573
-0.0183083
-0.0182077
-0.0588992
-0.0609756
-0.0609549
-0.0183401
-0.018779
-0.0187139
-0.0194314
-0.0192105
-0.0194944
-0.0195321
-0.0196585
-0.0189061
-0.0037403
-0.0587714
-0.0195289
-0.0175115
-0.00379261
-0.0187378
-0.0195316
-0.0127838
-0.0118948
-0.0179923
-0.0184399
-0.0182369
-0.0181886
-0.0182614
-0.0178855
-0.0185241
-0.0181553
-0.0164689
-0.0171507
-0.017395
-0.00664694
-0.00661699
-0.0148854
-0.017518
-0.0172302
-0.0156439
-0.0157019
-0.0153409
-0.0171842
-0.016452
-0.0161576
-0.0151543
-0.0423973
-0.0165508
-0.0163546
-0.0170662
-0.0170855
-0.0168499
-0.0163877
-0.0160413
-0.0166964
-0.0173361
-0.0178214
-0.0171329
-0.0170049
-0.0170293
-0.0174691
-0.0169342
-0.0172564
-0.0184471
-0.0179631
-0.0170674
-0.0168816
-0.0172659
-0.0176812
-0.0178539
-0.00400942
-0.0171754
-0.0163398
-0.0175585
-0.0170856
-0.0166876
-0.0174587
-0.0171711
-0.0174522
-0.0181175
-0.0168287
-0.0176976
-0.0176661
-0.0164609
-0.0174471
-0.0179913
-0.0173214
-0.0169478
-0.0176457
-0.017696
-0.0174277
-0.0175625
-0.0180951
-0.0117299
-0.0113611
-0.043928
-0.0177086
-0.0177088
-0.0421784
-0.0180192
-0.017325
-0.0428323
-0.0431665
-0.0190242
-0.0437041
-0.0120256
-0.0424369
-0.0443186
-0.0416335
-0.0155479
-0.0147074
-0.0175829
-0.0181784
-0.0174303
-0.0182541
-0.0147069
-0.00896715
-0.0191507
-0.0181101
-0.0185615
-0.019669
-0.0187205
-0.00337216
-0.0194896
-0.0186838
-0.0189238
-0.0194328
0.0180196
-0.0182564
0.0172849
0.0173578
-0.0167413
-0.00215354
-0.0327642
-0.00749747
-0.032368
-0.0326911
-0.0190533
-0.0148256
-0.0153585
-0.0366998
-0.0187676
-0.0370393
-0.0358015
-0.0359073
-0.00984344
-0.0616837
-0.0622728
-0.0361566
-0.0634345
-0.0359917
-0.0144044
-0.0625149
-0.0655793
-0.0615042
-0.06523
-0.0301607
-0.0618684
-0.0309669
-0.0660123
-0.0691602
-0.0655014
-0.01534
0.00701409
-0.0666432
0.00665894
-0.0676598
-0.0606258
-0.0606854
-0.0641991
-0.0659364
-0.0646344
-0.0622825
-0.0623625
-0.0614004
-0.0641405
-0.0630097
-0.06364
-0.063254
-0.0635819
-0.0668236
-0.064044
-0.0660585
-0.00439346
-0.0650497
0.00674126
-0.0639182
-0.0624039
-0.00388342
-0.0644057
-0.0147408
-0.0155335
-0.0148056
-0.0660383
-0.0654411
0.007918
-0.0165977
-0.0656726
-0.0635941
-0.0175064
-0.0120161
-0.00279699
-0.0636898
-0.0632815
-0.064024
-0.0152263
-0.00423065
-0.0603362
-0.0139796
-0.0620394
-0.0594169
-0.0616342
-0.0621476
-0.0129668
-0.0626452
-0.0616101
-0.0611286
-0.0602471
-0.0651731
-0.0607295
-0.0598407
-0.0594723
-0.0613865
-0.0596667
-0.0604424
-0.0130952
-0.0637815
-0.0610916
-0.0619547
-0.0605786
-0.0622684
-0.0131243
-0.014561
-0.0658336
-0.0654465
-0.0668112
-0.0138819
-0.067612
-0.0115605
-0.0138575
-0.0649694
-0.0126323
-0.0650451
-0.0633063
-0.0634279
-0.00913812
-0.0140849
-0.0599358
-0.0632297
-0.0619783
-0.0633482
-0.0628626
-0.062985
-0.0595081
-0.0616222
-0.0101134
-0.0632815
-0.0604385
0.00843766
0.00836897
0.00997395
-0.0127904
-0.0126162
-0.061416
-0.063934
-0.0106097
-0.0607855
-0.0627333
-0.0618095
-0.0606798
-0.0614742
-0.0596114
-0.0597406
-0.064477
-0.0140043
-0.0128359
-0.016238
-0.060575
-0.0620206
-0.0545474
-0.0565731
-0.0559883
-0.0170188
-0.0169189
-0.0568016
-0.0173698
-0.0569944
-0.0601597
-0.0634375
-0.0171124
-0.0615874
-0.0614655
-0.0615486
-0.06184
-0.0613614
-0.064925
-0.0686487
-0.0648694
-0.0641953
-0.0669895
-0.0688024
-0.0635173
-0.0660584
0.0154028
-0.0659194
-0.0650949
-0.0647808
-0.0636149
-0.0621876
0.0141187
0.0135324
0.0121847
-0.0653784
-0.057416
-0.0171924
-0.0173445
0.0119542
-0.0168226
0.0124722
-0.0630894
-0.0630266
-0.0593131
-0.0167913
-0.0603072
-0.062949
-0.0605392
-0.0628569
-0.00393298
-0.0626561
-0.0575423
-0.0173105
-0.0588064
-0.0624704
-0.0586951
-0.0596224
-0.0726657
-0.0703288
-0.0710394
-0.0751745
-0.074905
-0.0738241
-0.0722954
-0.0724213
-0.0771273
-0.0830507
-0.0782026
-0.0779609
-0.0819307
-0.0812317
-0.0783113
-0.0806735
-0.0741479
0.0116976
-0.0719481
-0.0717179
-0.0696867
-0.0711446
-0.0705215
-0.0703465
-0.0708722
-0.00328136
-0.0726242
-0.0731963
-0.0719417
-0.0037824
-0.0748481
-0.00360427
0.00744061
-0.069536
-0.0736254
-0.0741139
-0.073236
-0.0726691
0.0075537
0.00743691
0.00861433
-0.0710479
-0.0754798
-0.0754391
-0.0733115
-0.00333933
-0.0771789
-0.00289213
-0.072195
-0.0734567
-0.0766137
-0.0739655
-0.0735839
-0.0702374
-0.0741002
-0.0741884
-0.0778032
-0.0733093
-0.0750061
-0.0710792
-0.0741465
-0.074315
-0.0736272
-0.077184
-0.0658504
-0.0621167
-0.0655259
-0.0649013
-0.0650335
-0.0642768
-0.0621782
-0.0651795
-0.0655743
-0.0164326
-0.0705211
-0.0685871
-0.0167552
-0.00387822
-0.0688127
-0.0666382
-0.0700724
-0.0721809
-0.0684509
-0.0695072
-0.0679344
-0.0702555
-0.0686648
-0.0684247
-0.0181391
-0.0186868
-0.0166165
-0.0696002
-0.0698978
-0.0678399
-0.0165957
-0.0166482
-0.063707
-0.0615771
-0.0639198
-0.0170392
-0.0611893
-0.0635794
-0.0628715
-0.0639135
-0.0206179
-0.0204302
-0.0161469
-0.0680541
-0.0691906
-0.00409044
-0.0661116
0.00596339
-0.0638117
-0.015318
-0.0606158
0.00634806
-0.00278124
-0.00373166
-0.0630566
-0.0108563
-0.0675434
0.0149836
-0.0669903
-0.0174919
-0.0677888
-0.0666332
-0.06714
-0.0674847
-0.0651625
-0.0171881
-0.0656883
-0.0673548
-0.0681237
-0.0664773
-0.0643906
-0.0652421
-0.0154495
0.0143842
-0.0173038
-0.0698205
-0.0692188
-0.00355256
-0.0665886
-0.0170712
-0.065388
-0.0103137
-0.0643605
-0.010198
-0.0173513
-0.0176435
-0.0636579
-0.065266
-0.0148811
-0.00402801
-0.0177014
0.00721539
0.0070031
-0.0175846
0.00773977
0.00785752
-0.0700267
-0.0708277
-0.0679038
-0.066043
-0.0691147
-0.0683011
-0.0702014
-0.0680334
-0.068113
-0.0681482
-0.067172
0.00780316
0.00773528
0.0173328
-0.0675243
-0.0689505
-0.0642412
-0.0602555
0.0175145
0.0173953
0.0173973
-0.0170817
-0.0169651
-0.0172014
-0.0645982
-0.0618377
-0.062637
-0.0174827
-0.0190673
-0.0626286
0.0171567
-0.0636048
-0.0172477
-0.0172984
-0.0654672
-0.0667527
-0.0173028
-0.0147037
-0.0154569
-0.0167311
-0.0433864
-0.0642943
-0.0721245
-0.067351
-0.067368
-0.00350294
-0.0659562
-0.0429163
-0.0675023
-0.0433802
-0.0649502
-0.0655328
-0.0437027
-0.0208713
-0.0624956
-0.0637445
-0.071992
-0.0674682
-0.0657477
-0.0676398
-0.0666392
-0.0687934
-0.0678701
-0.0658322
-0.0639947
-0.0217938
-0.00326437
-0.0214184
-0.0212957
-0.0160588
-0.025243
-0.0115051
-0.0155003
-0.0275363
-0.0258562
-0.0674484
-0.0653085
-0.0257273
-0.0669366
-0.0257348
-0.00633605
-0.0617185
-0.0145891
-0.0592487
-0.0606867
-0.00849521
-0.0600264
0.0191876
-0.062311
-0.0606491
-0.0675929
-0.0619671
-0.0614149
-0.0617053
-0.0642632
-0.0614745
-0.0673955
-0.0596448
-0.0588644
-0.0633137
-0.0632469
-0.0637178
-0.0641593
-0.0630556
0.0185183
-0.0163035
-0.0158589
-0.0659517
-0.0634944
-0.0130219
-0.0676629
-0.0142048
-0.012685
-0.0618346
-0.0637423
0.0185457
0.0187272
-0.0601505
0.0194398
-0.0623959
-0.0147442
-0.0117125
0.00238871
0.00220888
0.00134235
0.00131223
-0.0159319
-0.0127276
-0.0572855
-0.0164087
-0.0138411
-0.0574378
-0.0142164
-0.0160851
-0.0590741
-0.0574858
-0.0169238
-0.0556792
-0.0558889
-0.0578922
-0.0577542
-0.0156069
-0.0557685
-0.0626975
-0.057129
-0.058339
-0.0612296
-0.0583237
-0.061661
-0.0578592
-0.0631165
-0.0576535
-0.0598655
-0.0612541
-0.0606488
-0.0604477
-0.0604201
-0.0586293
-0.0610829
-0.059277
-0.0573067
-0.0610938
-0.0581254
-0.0591313
-0.0599303
-0.0582555
-0.0580245
-0.0588424
-0.059242
-0.0126028
-0.0569661
-0.0580514
-0.0565483
-0.0569148
-0.0579742
-0.0581236
-0.0585692
-0.0583063
-0.0573996
-0.0550282
-0.0564715
-0.0585617
-0.0580802
-0.0566109
-0.0566895
-0.0123787
-0.0569481
-0.0576317
-0.0553066
-0.0582766
-0.0564834
-0.0566029
-0.0640147
-0.0587213
-0.0598091
-0.0594031
-0.0599805
-0.0446406
-0.0595053
-0.0449175
-0.0126372
-0.0135827
-0.0612973
-0.0616703
-0.0636866
-0.0548248
-0.0618358
-0.0552167
-0.0633301
-0.0138095
-0.0596832
-0.0627701
-0.0614832
-0.0635537
-0.0158136
-0.00825484
-0.0173401
-0.0138376
-0.0132302
-0.0612689
-0.010039
-0.0627757
-0.0140244
-0.015451
-0.0632703
-0.0629462
-0.0162307
-0.0111835
-0.0154459
-0.0609387
-0.00431329
-0.0108201
-0.0613525
-0.0544819
-0.0126667
-0.011911
-0.00965793
-0.0148013
-0.0593111
0.0145491
-0.0618126
-0.0612382
-0.0616881
0.0143725
0.0147644
-0.015123
-0.060884
-0.0609715
-0.0154611
-0.0160139
-0.0627576
-0.0153393
-0.0606266
-0.00951316
-0.0608803
-0.0130613
-0.0147759
-0.0130728
-0.0646681
-0.0131997
-0.0120951
-0.014524
-0.0136254
-0.0140217
-0.066304
-0.0707158
-0.0664561
-0.0694157
-0.0679862
-0.0686827
-0.0650465
-0.0654954
-0.0652138
-0.0629341
-0.0146927
-0.0631752
-0.0142612
-0.0624131
-0.015055
-0.0637271
-0.0636921
-0.0655458
-0.0664703
-0.0636323
-0.0648634
-0.0642526
-0.0652534
-0.0651755
-0.0139238
-0.0626595
-0.0641253
-0.0660942
-0.0652448
-0.0658114
-0.065259
-0.0648805
-0.0135571
-0.0647801
-0.0129571
-0.0665939
-0.064928
-0.0653025
-0.0656121
-0.0667098
-0.0648818
-0.063435
-0.0672288
-0.0129024
-0.0143037
-0.0635575
-0.0636016
-0.0144213
-0.0124246
-0.0641973
-0.0650134
-0.0130358
-0.0124961
-0.0143502
-0.0141268
-0.0137928
-0.0599977
-0.058216
-0.0596896
-0.013093
-0.0142327
-0.0585408
-0.0150005
-0.0591977
-0.059814
-0.0591336
-0.0151576
-0.0624424
-0.062395
-0.0168469
-0.0159135
-0.0614773
-0.0592647
-0.0152949
-0.0595517
-0.0163162
-0.00434068
-0.0156203
-0.0150064
-0.0598436
-0.0608795
-0.063245
-0.0660508
-0.0145295
-0.0511373
-0.0163824
-0.0655545
-0.0632089
-0.0127464
-0.0154868
-0.0614611
-0.0629706
-0.0604658
-0.0620229
-0.0624608
-0.0591123
-0.0126512
-0.0605493
-0.0598014
-0.0622928
-0.0601184
-0.0616363
-0.0121262
-0.0161949
-0.0119233
-0.0151354
-0.0575295
-0.0608011
-0.059422
-0.0156215
0.00808252
0.0083431
-0.0581595
0.00857312
-0.059728
0.00821598
-0.0130076
-0.0158703
0.0160351
-0.0113665
-0.0621924
-0.00935183
-0.0626685
-0.0616234
-0.0610434
-0.0615479
-0.0636325
-0.0606744
-0.0625664
-0.0628175
-0.0633646
-0.0624336
-0.0617367
-0.0630012
-0.0647883
-0.0630691
-0.0603274
-0.0584451
-0.0162265
-0.0596835
-0.0604486
-0.0593912
-0.00176795
-0.00302623
-0.00629083
-0.0103751
-0.052687
-0.0589447
-0.0601216
-0.0615081
-0.00603693
-0.00726119
-0.062609
-0.0103568
-0.0619422
-0.0607616
-0.00930542
-0.0139433
-0.0615183
-0.0610326
-0.00720541
-0.0592603
-0.0587634
-0.0596331
-0.0592138
-0.0587709
-0.059889
-0.0567143
-0.0581721
-0.0567911
-0.0601421
-0.0599661
-0.0604726
-0.0599353
-0.0607804
-0.0561353
-0.0616695
-0.0140417
-0.0482343
-0.0151949
-0.0462281
-0.0587716
-0.0499612
-0.0608814
-0.0600652
-0.0602626
-0.063219
-0.057365
-0.0599518
-0.0599392
-0.0612101
-0.0603407
-0.0590489
-0.0573355
-0.0555779
-0.0597785
-0.0596367
-0.0534863
-0.0597219
-0.0141976
-0.0615221
-0.0599593
-0.058313
-0.0136524
-0.0608025
-0.0139933
-0.0601445
-0.0600344
-0.0587847
-0.0131995
-0.0595874
-0.0593154
-0.034278
-0.0304376
-0.0125118
-0.014816
-0.0613254
-0.0590005
-0.0610665
-0.0137993
-0.0358152
-0.0352793
-0.0600149
-0.0611638
-0.0633319
-0.0626861
-0.0634014
-0.0642352
-0.0641282
-0.0640363
-0.0625003
-0.064618
-0.0619465
-0.0146509
-0.0250325
-0.0126077
-0.015944
-0.0138614
-0.010021
-0.0617326
-0.0616633
-0.0626832
-0.0640571
-0.0107354
-0.0121635
-0.010385
-0.0143113
-0.0623167
-0.0154419
-0.0128676
-0.0607537
-0.0613893
-0.0146308
-0.0133846
0.00182521
0.00132749
0.00184969
-0.0604549
-0.0629194
-0.0637937
-0.0629736
-0.0136496
-0.0615761
-0.0125652
-0.0624301
-0.0117279
-0.0626097
-0.0613615
-0.0624349
-0.0129537
-0.0626812
-0.0608626
-0.0600424
-0.0618038
-0.0643368
-0.0606118
-0.060807
-0.0610665
-0.0620197
-0.0634194
-0.0596867
-0.0114385
-0.0581754
-0.0604617
-0.0606541
-0.0118614
-0.0594951
-0.0117586
-0.00911239
-0.0582149
-0.0102519
-0.0601005
-0.0593641
-0.00960486
-0.0592764
-0.00961181
-0.00924805
-0.0131468
-0.0606808
-0.062268
-0.0615562
-0.0131214
-0.0599654
0.0097911
-0.0122056
-0.0626295
-0.0598908
-0.0121666
-0.012647
0.00575425
-0.0130766
0.00855299
-0.0600155
-0.0612684
-0.0498705
-0.0601989
-0.0592337
-0.00343475
0.0146348
-0.0118456
0.0104215
-0.0597383
-0.0582383
-0.0607104
-0.0579832
-0.0602854
-0.0590026
-0.060935
-0.0147808
-0.0114125
-0.061303
-0.0104037
-0.0131478
-0.0122524
-0.0606207
-0.0118094
-0.058298
-0.0587418
-0.00200929
-0.0126441
-0.01231
-0.0584639
-0.0105591
-0.0608218
-0.059728
-0.0616119
-0.0635597
-0.0654946
-0.0625056
-0.0627447
-0.0608439
-0.0603277
-0.0595051
-0.0108779
-0.0628505
-0.00445721
-0.00377178
-0.00948877
-0.0018807
-0.00216073
-0.0657193
-0.0690348
-0.0666253
-0.0679644
-0.0681315
-0.0672386
-0.0648375
-0.0659327
-0.0660297
-0.0660923
-0.0108544
-0.0021487
-0.00176999
-0.0128443
-0.0133392
-0.0117675
-0.0620621
-0.0611905
-0.0628785
-0.0642864
-0.0625867
-0.0622899
-0.0604489
-0.0647784
-0.0602206
-0.0604149
-0.0638354
-0.0633988
-0.0639407
-0.060723
-0.0612795
-0.063491
-0.0654717
-0.0671036
-0.065669
-0.00204426
-0.0650518
-0.068049
-0.0665942
-0.0670883
-0.0130159
-0.0680397
-0.0135276
-0.0114858
-0.0682038
-0.0134958
-0.0644881
-0.0162587
-0.0754715
-0.0690451
-0.0742597
-0.0714695
-0.073567
-0.0727872
-0.0730925
-0.0736215
-0.077349
-0.0785987
-0.0171916
-0.0769754
-0.0772566
-0.0769909
-0.0159794
-0.0157663
-0.0170484
-0.0105037
-0.0692038
-0.0718955
-0.0709498
-0.0119283
-0.0759329
-0.0118595
-0.0759832
-0.0777277
-0.0788313
-0.00101553
-0.000265348
-0.0783788
-0.0748078
-0.0788536
-0.0755089
-0.0750717
-0.0743221
-0.0784571
-0.0780006
-0.0779852
-0.0765555
-0.0744101
-0.0776696
-0.0745942
-0.0756755
-0.0783676
-0.0785345
-0.0750576
-0.0755056
-0.0765489
-0.0739348
-0.0748775
-0.0114155
-0.0731234
-0.0704855
-0.0743449
-0.074573
-0.0753452
-0.0780299
-0.0761665
-0.0121523
-0.0709637
-0.0724726
-0.0743782
-0.0733442
-0.0729915
-0.0737631
-0.0748058
-0.0737729
-0.0752387
-0.0683749
-0.0757806
-0.0757478
-0.072461
-0.0805119
-0.082344
-0.0156868
-0.0812473
-0.0837009
-0.0832531
-0.0800598
-0.078541
-0.0713765
-0.071056
-0.0706313
-0.070858
-0.0701586
-0.0152368
-0.0715723
-0.0120592
-0.073835
-0.0761979
-0.0799562
-0.0766006
-0.0791383
-0.0786076
-0.0812185
-0.0774831
-0.0132919
-0.0750491
-0.0772618
-0.0802344
-0.0754778
-0.0812343
-0.0752582
-0.0762935
-0.0793026
-0.0777849
-0.0797886
-0.0798052
-0.0779396
-0.0763811
-0.0753084
-0.0809918
-0.0736638
-0.0740477
-0.0757933
-0.0727808
-0.0730684
-0.0748967
-0.0759514
-0.0729882
-0.0772961
-0.0751531
-0.0736357
-0.0737334
-0.0723483
-0.0713684
-0.0716236
-0.0767404
-0.0750815
-0.0750553
-0.0759732
-0.0749887
-0.0741561
-0.0756819
-0.0774279
-0.0748387
-0.00902831
-0.0718876
-0.000581681
-0.000731499
-0.0173446
-0.0255552
-0.0137515
-0.0246716
-0.0131387
-0.0700099
-0.011901
0.00185173
0.00399445
0.00139226
0.00303192
0.00299181
-0.073845
-0.0788855
-0.0747003
-0.00975805
-0.0791163
-0.0752664
-0.0768169
-0.0753132
-0.0671472
-0.0661433
-0.0653787
-0.070537
-0.0686971
-0.067356
-0.0677388
-0.0682038
-0.0651901
-0.0681489
-0.0418388
-0.0663187
-0.029085
-0.0666536
-0.0526962
-0.0653056
-0.0148991
-0.0138017
-0.0133873
-0.0624446
-0.0129541
-0.0622598
-0.067633
-0.10969
-0.0125605
-0.100158
-0.0119876
-0.0629906
-0.0118992
-0.011003
-0.012579
-0.0102519
-0.062754
-0.0118673
-0.0640776
-0.0145539
-0.0730605
-0.0745677
-0.0747862
-0.0833849
-0.0601793
-0.0591876
-0.080989
-0.0143969
-0.0826608
-0.0615429
-0.0831281
-0.061327
-0.0156339
-0.0597375
-0.0613631
-0.0856023
-0.0597478
-0.0153753
-0.061407
-0.0145716
-0.016683
-0.0624793
-0.0137799
-0.0176945
-0.0182605
-0.00306666
-0.060925
-0.0617084
-0.0125765
-0.00247533
-0.0526414
-0.0621284
-0.0191834
-0.00109079
-0.0173653
-0.0117822
-0.0109935
-0.0177885
-0.0182947
-0.0631159
-0.0194871
-0.0212649
-0.0223711
-0.0208526
-0.0646677
-0.0653159
-0.0641685
-0.0631078
-0.0632566
-0.0645063
-0.0634416
-0.0041046
-0.0649587
-0.0642864
-0.0616232
-0.0644536
-0.0657588
-0.0649297
-0.0644351
-0.0639453
-0.0612107
-0.0208422
-0.0585201
-0.0217286
-0.063796
-0.0214187
-0.0631357
-0.0214948
-0.0187526
-0.066057
-0.0646428
-0.0655571
-0.0639722
-0.01902
-0.0650099
-0.0199707
-0.0187984
-0.0625179
-0.0639154
-0.063665
-0.0635219
-0.063601
0.00263712
0.00569099
0.00404625
-0.0647075
0.00425684
-0.0662159
0.00086148
0.00169042
0.00225159
0.00111999
-0.0659045
-0.0625545
-0.0621902
-0.0618608
-0.0626667
-0.0651129
-0.0632027
-0.0651972
-0.0660227
-0.0629899
-0.0628008
-0.0625268
-0.0635176
-0.0641621
-0.0196723
-0.0642753
-0.0581729
-0.0191591
-0.059275
-0.0565962
-0.0598177
-0.0595047
-0.0580575
-0.0590335
-0.000413356
-0.057283
-0.0156782
-0.0583321
-0.0162996
-0.0574329
-0.0142691
-0.0568906
-0.0578438
-0.0582084
-0.0174555
-0.05787
-0.0590998
-0.0569977
-0.0558966
-0.0576182
-0.0201056
-0.0617503
-0.0584643
-0.0587233
-0.0601727
-0.0600321
-0.0590737
-0.0598232
-0.0198176
-0.00435596
-0.0144481
-0.0586176
-0.0589193
-0.0581261
-0.0106011
-0.015658
-0.0572848
-0.0595487
-0.00626816
-0.0940223
-0.0918454
-0.0574128
-0.0568315
-0.00126999
-0.0140575
-0.0157383
0.0125286
-0.0578897
-0.0595519
-0.0603497
-0.0105184
-0.00777115
-0.0892234
-0.0589464
-0.056428
-0.0945932
-0.0914994
-0.0581465
0.0019242
-0.0565885
-0.0147812
0.00251502
-0.0627612
-0.0163009
-0.0641428
0.00291224
-0.0635532
-0.016108
-0.0661111
-0.0157803
-0.016074
-0.0161162
0.0108037
-0.00794484
-0.0174573
-0.0155096
-0.0665989
-0.0664458
-0.064203
-0.0153146
-0.000911734
-0.0636386
-0.0397475
-0.0663687
-0.0643621
-0.0627901
-0.0644086
-0.0631742
-0.0628135
-0.06327
-0.064495
-0.0643115
-0.0667763
-0.0635283
-0.0639166
-0.0653463
-0.0643364
-0.0657046
-0.0650753
-0.0635198
-0.0397369
-0.0389103
-0.0153261
-0.0499403
-0.0492984
-0.0500358
-0.0496692
-0.0504358
-0.0632606
-0.0290684
-0.0654872
-0.0656896
-0.0287778
-0.0273387
-0.0666396
-0.0644663
-0.0154023
-0.0160166
-0.00990815
-0.0657008
-0.0660666
-0.0294727
-0.0665484
-0.00117954
-0.0086288
-0.0160616
-0.0158153
-0.0239039
-0.0238041
-0.0240115
-0.024317
-0.00135376
0.0197422
-0.0154918
-0.015988
-0.0168372
-0.0169494
0.019859
-0.01548
0.019713
-0.00950393
-0.0106403
-0.0110299
-0.0172902
-0.0108802
-0.0159288
-0.0173159
-0.014817
-0.0629716
-0.0645331
-0.0630425
-0.0167053
-0.0102399
-0.0163318
-0.0645694
-0.0643443
-0.0161747
-0.000619151
-0.00109202
-0.06273
-0.000163937
-0.000526846
-9.84196e-05
-0.000250947
0.0127989
-0.0622942
-0.0606728
-0.0630686
-0.0172109
-0.000105184
-0.0155442
-0.00396669
-0.0627555
-0.0643844
-0.0157761
-0.0165734
-0.00483544
0.00372398
-0.0178411
-0.0104195
-0.000136645
-0.0165289
0.00262418
0.00277136
0.0030021
0.00404833
-0.0154028
-0.0241794
-0.0117358
-0.0116707
-0.0111077
-0.0108088
-0.00367368
0.000674446
0.000745601
-0.00354053
-0.00259229
-0.0159297
-0.0184189
-0.0148336
-0.0129338
-0.0133924
-0.0165882
-0.012955
-0.0653027
-0.0173897
-0.0627806
-0.00361835
-0.0655927
-0.0129585
-0.0628873
-0.0167862
-0.06487
-0.0655898
-0.00241712
-0.0158064
0.0451728
-0.0142327
0.0362841
-0.019729
0.00829028
0.00835916
-0.018825
-0.0656223
-0.0640316
-0.0138015
0.00847658
0.008601
0.00855572
-0.0623002
0.00823885
-0.0160012
0.0428067
0.0374242
0.0403751
0.0341712
-0.0635907
0.0384076
-0.0637971
-0.019012
-0.0640184
-0.0643715
-0.0630515
-0.0647765
-0.0141216
-0.0636177
-0.0190815
-0.0145889
-0.014288
-0.0142747
-0.0195478
-0.0186642
-0.0632549
-0.0654621
-0.0182907
-0.0181506
-0.0641717
-0.0645833
-0.0639009
-0.0615358
-0.0629993
-0.0610493
-0.0184092
-0.0143738
0.0383505
-0.0187335
-0.0592131
-0.0606168
-0.0599285
-0.0185712
-0.0193085
-0.0595206
-0.0592219
-0.060385
-0.059724
-0.0603045
-0.0604098
-0.0584315
-0.0187593
0.0396698
-0.0187163
-0.0587839
0.0478919
-0.060554
-0.01898
0.000971487
-0.0200431
-0.0208482
-0.000136404
-0.000265091
-0.0199181
-0.0580331
-0.0189627
-0.00884323
-0.0199071
-0.060066
-0.0188573
-0.00751591
-0.0605742
-0.00784465
-0.0188557
-0.0604983
-0.0586871
-0.061973
-0.0190775
-0.0597216
-0.0607569
-0.0595112
-0.0629686
-0.00907947
-0.0605776
-0.0190756
-0.0619614
-0.0104073
-0.0620721
-0.126683
-0.0648614
-0.13317
-0.0629719
-0.0212552
-0.0188484
-0.121422
-0.0186562
-0.142397
-0.0616881
-0.0650751
-0.019398
-0.0194055
-0.0623114
-0.0643013
-0.0637967
-0.0637115
-0.0627993
-0.0196623
-0.0617263
-0.129394
-0.0193887
-0.0618061
-0.0211611
-0.0581119
-0.0202221
-0.0588658
-0.0193603
-0.0181013
-0.0585048
-0.0587011
-0.0602509
-0.0183153
-0.0617922
-0.0167713
-0.0636251
-0.0611273
-0.017003
-0.0586174
-0.06226
-0.0594162
-0.0615533
-0.0173337
-0.0629129
-0.0168253
-0.0166878
-0.0626733
-0.0625078
-0.0182454
-0.061431
-0.0210741
-0.0198752
-0.0616649
-0.0211757
-0.0211596
-0.060892
-0.0612595
-0.0620679
-0.0200462
-0.0206935
-0.0632103
-0.0632418
-0.0629173
-0.0633913
-0.0624447
-0.063978
-0.021092
-0.0651714
-0.0671827
-0.0651954
-0.0664514
-0.0655748
-0.0644305
-0.014229
0.00196599
0.013299
-0.060037
0.0143407
0.0143331
0.0146494
0.015264
-0.0138466
0.0114706
-0.0203461
-0.0683386
-0.0154689
-0.0211528
0.0128912
-0.015107
-0.0673273
-0.0634885
-0.0636177
-0.0655249
-0.0657277
-0.065204
-0.0649155
-0.0635683
-0.0718302
-0.069168
-0.000515741
-0.0201698
0.00386634
-0.0677676
0.00491411
-0.0720234
-0.0750734
-0.0808716
5.19355e-06
-0.0803046
-0.0216306
-0.0185855
-0.00214726
-0.00212628
-0.0182887
-0.0778698
-0.0750085
-0.0812424
-0.0768128
-0.0773848
-0.0770585
-0.0749851
-0.0759122
-0.0781488
-0.0806676
-0.016949
-0.00218537
-0.00228528
-0.00169582
-0.0126818
-0.0774646
-0.0766143
-0.0770066
-0.0737431
-0.0751093
-0.0742463
-0.0759789
-0.0768111
-0.073948
-0.0704986
-0.0698494
0.0192462
0.00291469
-0.0452379
-0.0698193
-0.0709057
-0.0664499
-0.066211
-0.0671415
-0.0727181
-0.0641319
-0.068787
-0.0676639
-0.0682602
-0.0795976
-0.0790357
-0.0453541
-0.0752056
-0.0763398
-0.07896
-0.073954
-0.0763711
-0.017042
-0.0452031
-0.077583
-0.074629
-0.0177817
-0.0120774
-0.0197132
-0.0199181
-0.0215246
-0.0198754
-0.0857122
-0.0839474
-0.0202198
-0.0204305
0.00390943
0.00237472
-0.0823147
-0.0802426
-0.0767419
-0.0817356
-0.0784751
-0.0804187
-0.0809111
-0.0817098
-0.0781648
-0.0175664
-0.0836829
-0.0831837
-0.0813672
-0.0787396
-0.0812423
-0.0792442
-0.0790529
-0.0801989
-0.0800132
-0.080669
-0.0807049
-0.0824471
-0.0800853
-0.0799875
-0.0796565
-0.0813972
-0.08243
-0.0801693
-0.0809548
-0.0770185
-0.079473
-0.0811802
-0.0796897
-0.0780604
-0.0761634
-0.0174558
-0.0780779
-0.0768382
-0.0789799
-0.0785988
-0.0181049
-0.0801553
-0.0807418
-0.0741493
-0.0795303
-0.0780499
-0.0801185
-0.0793723
-0.0698327
-0.0170484
-0.0713728
-0.0692166
-0.0148781
-0.0157895
-0.0722419
-0.0692337
0.00519428
-0.0709745
-0.0699729
-0.0151692
-0.0708133
0.00399262
-0.0701291
-0.0149281
-0.0149221
-0.0148546
-0.0182617
-0.0538952
-0.0148998
-0.0187301
-0.0183431
-0.0201622
0.00533793
-0.0593587
-0.0555517
-0.0133351
-0.00850013
-0.00768342
-0.0160766
-0.0147168
-0.0145091
-0.0525662
-0.052782
-0.0541464
-0.0540448
-0.0522025
-0.0146619
-0.0158826
-0.0382137
-0.0570189
-0.0138828
-0.0561681
-0.0563409
-0.0571885
-0.0150868
-0.0554895
-0.0546598
-0.0553992
-0.0378638
-0.0147684
-0.0554024
-0.0548535
-0.0550227
-0.0560742
-0.0546289
-0.00251798
-0.0036296
-0.00644871
-0.00771103
-0.0153173
-0.0150369
-0.0549127
0.0580028
-0.0545276
-0.0547291
0.0504372
0.0429121
0.0428377
-0.0547422
-0.0547161
0.0219723
-0.0556004
-0.0538104
-0.0528649
-0.0545802
-0.0543198
-0.0536064
-0.0534579
-0.0522964
-0.0544362
-0.0164832
0.0583101
0.0148308
-0.0525878
0.0157298
-0.0532834
-0.0514184
-0.0527927
-0.0520349
-0.0511393
-0.0513408
-0.0528073
-0.0514937
-0.0512619
-0.0535074
-0.055501
-0.0538706
-0.015269
-0.0152693
-0.0146635
-0.0553285
-0.0538285
-0.0258409
-0.0519844
-0.0514261
-0.0515851
-0.0512644
-0.0256388
-0.0510765
0.0194793
-0.0523388
-0.0148849
-0.0151016
-0.0512864
-0.0115311
-0.0516335
-0.0156999
-0.0521723
-0.0151029