/*--------------------------------*- C++ -*----------------------------------*\
| =========                 |                                                 |
| \\      /  F ield         | OpenFOAM: The Open Source CFD Toolbox           |
|  \\    /   O peration     | Version:  5.0                                   |
|   \\  /    A nd           | Web:      www.OpenFOAM.org                      |
|    \\/     M anipulation  |                                                 |
\*---------------------------------------------------------------------------*/
FoamFile
{
    version     2.0;
    format      ascii;
    class       volVectorField;
    location    "1";
    object      wallShearStress;
}
// * * * * * * * * * * * * * * * * * * * * * * * * * * * * * * * * * * * * * //

dimensions      [0 2 -2 0 0 0 0];

internalField   uniform (0 0 0);

boundaryField
{
    septal
    {
        type            calculated;
        value           nonuniform List<vector> 
7808
(
(-1.58364e-05 6.31149e-06 -5.24979e-06)
(-1.76675e-05 3.66257e-06 -1.79541e-06)
(-1.37844e-05 8.70935e-06 3.27712e-06)
(-1.21795e-05 8.19334e-06 -3.2597e-07)
(-1.02242e-05 -5.38614e-06 -2.90968e-06)
(-1.67579e-05 4.73209e-06 -2.24217e-06)
(-1.70455e-05 4.76537e-06 -2.94001e-06)
(-1.71862e-05 1.9467e-06 -3.13858e-06)
(-1.36073e-05 -4.54909e-06 -1.0901e-06)
(-1.86562e-05 5.75317e-06 -2.32065e-06)
(-1.63503e-05 -6.3195e-06 7.19639e-06)
(-1.62868e-05 4.47841e-06 -5.74466e-06)
(-1.46825e-05 8.1332e-06 5.66953e-06)
(-1.59613e-05 3.38557e-06 2.6861e-06)
(-1.79292e-05 2.231e-06 1.74305e-06)
(-1.74765e-05 -5.50292e-06 3.00136e-06)
(-1.72962e-05 -5.35051e-06 1.63512e-06)
(-2.32259e-05 -8.85901e-06 -5.84486e-06)
(-2.08438e-05 2.03188e-06 -8.76487e-07)
(-2.32855e-05 7.44072e-06 -5.25415e-06)
(-1.79818e-05 4.51382e-06 5.32154e-07)
(-1.44638e-05 5.1487e-06 1.32938e-07)
(-1.78582e-05 -5.78342e-06 -3.8216e-06)
(-1.41246e-05 -3.4518e-06 1.22682e-06)
(-9.94389e-06 -3.89073e-06 -1.11127e-06)
(-1.18016e-05 -7.047e-06 -1.64445e-06)
(-1.65866e-05 5.09577e-06 -2.52545e-06)
(-1.37657e-05 3.26909e-06 -2.66764e-06)
(-1.64535e-05 8.32773e-06 -1.21043e-06)
(-1.63323e-05 -4.10018e-06 -3.30495e-06)
(-1.37839e-05 -4.07307e-06 -8.25204e-07)
(-1.19665e-05 -5.91955e-06 1.50746e-06)
(-1.61155e-05 -1.21109e-06 -4.23249e-06)
(-1.56424e-05 5.78703e-06 -1.61044e-06)
(-1.54442e-05 -4.67698e-06 -4.16354e-06)
(-1.42648e-05 5.16284e-06 -6.49937e-07)
(-1.29436e-05 -3.01011e-06 -1.65763e-06)
(-1.59574e-05 3.32952e-06 1.91303e-06)
(-1.43637e-05 3.31611e-06 2.04474e-06)
(-1.49976e-05 5.03231e-06 2.83484e-06)
(-1.89495e-05 8.28729e-06 -3.3832e-06)
(-1.81509e-05 -2.38481e-06 4.43077e-06)
(-1.39979e-05 1.5257e-06 -1.61426e-07)
(-1.90477e-05 -5.05412e-07 2.04256e-06)
(-1.19743e-05 -2.03887e-06 5.55551e-07)
(-5.30226e-05 3.0705e-05 1.12529e-05)
(-1.11962e-05 -5.13029e-06 -1.90233e-06)
(-1.31738e-05 -9.25683e-06 2.38367e-06)
(-2.54285e-05 -9.62506e-06 -4.82477e-05)
(1.02043e-06 9.76314e-07 1.17931e-05)
(-4.80431e-07 -1.30239e-06 1.34172e-05)
(-6.87332e-06 2.87788e-07 5.00305e-06)
(-5.66823e-06 2.48656e-05 -2.79912e-05)
(-4.65176e-06 5.96747e-05 -0.000100223)
(-1.71778e-05 4.75241e-05 -0.000120459)
(-1.60747e-05 -1.15052e-06 -4.15812e-06)
(-6.47092e-06 8.29223e-06 -1.13126e-05)
(-5.73442e-07 -8.49176e-07 6.21193e-06)
(-6.91317e-06 -2.32313e-06 5.14913e-06)
(-2.45673e-07 1.29227e-06 1.37597e-05)
(-4.28669e-05 -2.37683e-06 4.06053e-06)
(-5.74109e-05 -1.84845e-05 -4.33165e-06)
(-9.17585e-06 2.1928e-06 -4.38178e-06)
(-3.284e-06 -1.36219e-06 9.66602e-06)
(-5.55469e-06 6.08297e-06 1.4261e-05)
(-3.51105e-06 -5.26067e-06 1.33327e-05)
(-4.38715e-06 -6.93155e-06 1.38696e-05)
(-5.59991e-06 -4.50335e-06 1.36566e-05)
(-8.68549e-06 -3.28872e-06 2.23482e-06)
(-5.99447e-06 3.64724e-06 2.31548e-06)
(-9.82346e-06 2.34627e-06 3.71772e-06)
(-1.10529e-05 1.59108e-06 2.55296e-06)
(-4.05777e-06 2.93487e-06 9.09985e-06)
(-6.2425e-06 9.36244e-07 1.47507e-05)
(-6.76004e-06 -2.33202e-06 1.21825e-05)
(-3.52796e-06 -1.10125e-06 7.85077e-06)
(-3.65676e-06 -4.44239e-06 7.56076e-06)
(-4.04563e-06 -4.28258e-08 1.11659e-05)
(-2.61973e-06 -3.71849e-06 9.23953e-06)
(-1.12466e-05 -3.91502e-06 3.06788e-06)
(-4.43009e-06 -1.11065e-06 -3.30855e-06)
(-3.06251e-05 -1.12942e-05 -7.61307e-06)
(-1.99881e-05 4.62317e-06 -1.82243e-05)
(-2.26448e-05 -9.23326e-06 -7.53389e-06)
(-3.19403e-05 8.94106e-06 -1.55412e-05)
(-3.11276e-05 -2.56081e-06 -7.98907e-06)
(-2.53984e-05 -2.02418e-06 -5.01153e-06)
(-1.20806e-05 -9.3049e-06 -4.48604e-06)
(-1.74089e-05 1.30376e-05 -2.50252e-06)
(-1.24003e-05 -7.10245e-06 -7.65034e-06)
(-1.42036e-05 -7.92387e-06 -9.73935e-06)
(-1.12959e-05 -2.8675e-06 -6.32779e-06)
(-9.97625e-06 -6.21128e-07 -1.33486e-05)
(-2.34159e-05 9.50484e-06 -9.39544e-06)
(-2.49578e-05 1.58919e-05 -9.61165e-06)
(-1.68574e-05 -3.04472e-06 -9.4748e-06)
(-2.09694e-05 -1.04693e-05 -3.59265e-06)
(-2.51483e-05 -7.11558e-06 -1.2036e-05)
(-2.75067e-05 2.49394e-06 -7.30144e-06)
(-2.31283e-05 -1.62978e-05 -9.12682e-06)
(-2.0604e-05 1.59593e-05 -9.04465e-06)
(-3.11072e-05 -9.69391e-06 -6.24276e-06)
(-2.71664e-05 -2.00637e-05 -8.40923e-06)
(-2.56751e-05 -1.67524e-05 -1.81185e-05)
(-3.09948e-05 9.85404e-06 -1.27682e-05)
(-2.65541e-05 -1.04427e-05 -1.27452e-05)
(-1.25543e-05 -5.41398e-06 -1.13183e-05)
(-1.7211e-05 -3.59059e-06 -1.6129e-05)
(-2.18996e-05 1.85918e-05 -1.93972e-05)
(-2.64196e-05 -8.82507e-06 -2.35367e-05)
(-2.32459e-05 3.50553e-07 -1.70154e-05)
(-3.72052e-05 -8.05431e-06 -2.57297e-05)
(-2.64155e-05 1.54257e-05 -1.91419e-05)
(-9.4249e-06 -3.70737e-06 -9.10822e-06)
(-1.10137e-05 -5.83805e-06 -1.03191e-05)
(-1.01906e-05 -3.93513e-06 -1.33402e-05)
(-8.06843e-06 -4.82395e-06 -8.95698e-06)
(-1.05128e-05 -3.89866e-06 -1.19768e-05)
(-8.77147e-06 5.88199e-06 -8.15979e-06)
(-9.74063e-06 -3.31537e-06 -8.80647e-06)
(-9.27101e-06 -3.26491e-06 -8.33675e-06)
(-1.11399e-05 -4.90324e-06 -8.50867e-06)
(-6.37216e-06 2.20432e-07 -1.04242e-05)
(-1.35085e-05 -3.54242e-06 -1.48276e-05)
(-1.89992e-05 9.29306e-06 -5.14678e-06)
(-2.76175e-05 8.06259e-06 -1.26191e-05)
(-1.44304e-05 1.14316e-05 -1.61386e-05)
(-3.37665e-05 -3.79473e-06 -2.49976e-05)
(-2.56846e-05 -3.80412e-06 -1.94776e-05)
(-1.87102e-05 1.24667e-05 -1.53245e-05)
(-1.80164e-05 -6.61804e-06 -1.2568e-05)
(-1.99437e-05 -1.07212e-07 -1.61689e-05)
(-1.28958e-05 -3.67884e-06 -1.38498e-05)
(-1.42966e-05 1.06782e-05 -1.16041e-05)
(-2.05871e-05 -9.74502e-06 -7.68781e-06)
(-1.50033e-05 -1.19358e-05 -1.06153e-05)
(-2.15539e-05 -1.34858e-05 -1.34969e-05)
(-2.62267e-05 5.33428e-06 -9.99871e-06)
(-1.66158e-05 9.85518e-09 -2.32748e-05)
(-5.76041e-06 -2.77479e-06 -3.35976e-06)
(-1.16637e-05 2.47193e-07 -4.77935e-06)
(-1.24917e-05 -4.07378e-06 -3.65695e-06)
(-6.20005e-06 -5.72406e-06 -1.85497e-06)
(-7.0329e-06 -1.83873e-06 -2.74633e-06)
(-6.10236e-06 -3.5866e-06 -2.40957e-06)
(-9.57044e-06 -2.1793e-06 -3.68063e-06)
(-7.84834e-06 1.97267e-06 -2.42732e-06)
(-7.03959e-06 -1.10918e-06 -1.17246e-06)
(-9.61321e-06 -1.81156e-06 -4.52384e-06)
(-1.17624e-05 2.31795e-06 -4.53045e-06)
(-1.09855e-05 8.10148e-07 -3.13453e-06)
(-1.1973e-05 -1.22853e-06 -4.95772e-06)
(-8.78534e-06 -6.46055e-06 -1.94183e-06)
(-8.34045e-06 3.39576e-07 -3.34441e-06)
(-1.11039e-05 -7.82121e-07 -3.29873e-06)
(-9.06654e-06 -1.27725e-06 -2.78455e-06)
(-1.16605e-05 -2.83769e-06 -3.3577e-06)
(-8.30676e-06 3.19394e-06 -1.8144e-06)
(-7.40452e-06 2.15146e-07 -2.83763e-06)
(-1.0186e-05 -2.25568e-06 -4.9883e-06)
(-1.17818e-05 6.0453e-06 -3.75408e-06)
(-1.21639e-05 9.34299e-07 -1.27608e-06)
(-1.38822e-05 -3.14964e-06 -4.63544e-06)
(-1.14776e-05 1.38751e-06 -3.97585e-06)
(-1.46999e-05 1.90454e-06 -4.72432e-06)
(-9.01315e-06 7.3022e-06 -2.77676e-06)
(-1.07908e-05 -7.54782e-07 -3.12809e-06)
(-8.43343e-06 -4.86738e-06 -4.35847e-06)
(-5.66661e-06 7.54794e-06 -3.05148e-06)
(-7.87255e-06 1.94548e-06 -1.53782e-06)
(-5.8192e-06 -5.77702e-06 -2.19969e-06)
(-9.97637e-06 2.57677e-07 -5.53496e-06)
(-1.08838e-05 -3.52886e-06 -4.21666e-06)
(-1.02656e-05 2.0553e-06 -3.24366e-06)
(-8.19428e-06 -3.35327e-06 -3.46967e-06)
(-1.39984e-05 2.18312e-07 -5.40076e-06)
(-7.78485e-06 4.28612e-06 -3.96308e-06)
(-9.67256e-06 -1.96866e-06 -5.27444e-06)
(-1.01409e-05 -8.31486e-06 -4.15408e-06)
(-9.29654e-06 -7.49634e-06 -4.27987e-06)
(-1.16052e-05 3.865e-06 -4.14481e-06)
(-1.08602e-05 -1.2793e-06 -5.29136e-06)
(-1.34404e-05 -2.03249e-06 -6.59445e-06)
(-8.75725e-06 -7.34973e-06 -3.82603e-06)
(-9.45383e-06 4.25004e-06 -2.55695e-06)
(-1.01212e-05 -1.19499e-06 -5.41732e-06)
(-7.99377e-06 6.67828e-07 -2.84978e-06)
(-1.06708e-05 2.32939e-06 -3.24502e-06)
(-7.19622e-06 -4.88963e-06 -2.77802e-06)
(-1.45581e-05 -3.57886e-06 -6.42973e-06)
(-1.13176e-05 6.7151e-06 -2.36637e-06)
(-1.36381e-05 -1.96841e-06 -6.07481e-06)
(-1.3635e-05 2.62301e-06 -6.47754e-06)
(-7.4346e-06 -3.98624e-06 -2.4526e-06)
(-1.21015e-05 3.4074e-06 -5.32192e-06)
(-1.2596e-05 -3.2414e-06 -3.52713e-06)
(-8.34317e-06 6.15786e-06 -2.52709e-06)
(-8.50115e-06 -8.22244e-06 -2.74482e-06)
(-9.66836e-06 -7.07987e-06 -2.99081e-06)
(-9.49263e-06 3.09196e-06 -3.28623e-06)
(-9.28643e-06 -3.31343e-06 -2.19289e-06)
(-8.43737e-06 -7.35831e-07 8.67215e-06)
(-8.99157e-06 -1.39332e-06 4.82612e-06)
(-6.2549e-06 -2.85374e-06 7.33953e-06)
(-8.68435e-06 3.65958e-06 8.86535e-06)
(-1.15485e-05 -1.17007e-06 7.47047e-06)
(-1.40326e-05 2.27595e-06 6.2286e-06)
(-1.19356e-05 -5.84935e-06 8.40466e-06)
(-9.57723e-06 5.1577e-06 6.58196e-06)
(-8.19269e-06 -2.18931e-06 4.8262e-06)
(-1.03512e-05 -3.80657e-07 5.77317e-06)
(-7.57269e-06 2.61472e-06 7.33735e-06)
(-6.70275e-06 4.84694e-06 6.34434e-06)
(-9.28306e-06 -2.49829e-06 1.02056e-05)
(-8.33613e-06 -8.93286e-06 1.11112e-05)
(-9.08517e-06 -3.06108e-06 9.8971e-06)
(-1.38634e-05 2.47644e-06 8.74428e-06)
(-8.64734e-06 -2.21892e-06 8.98249e-06)
(-1.27055e-05 -8.61664e-06 8.48679e-06)
(-9.66505e-06 -1.03078e-06 5.03514e-06)
(-9.91172e-06 3.84956e-06 1.03372e-05)
(-6.32396e-06 -4.46293e-06 1.13557e-05)
(-7.78687e-06 3.91481e-06 1.09184e-05)
(-8.78663e-06 1.27793e-06 6.70773e-06)
(-5.31477e-06 -4.13524e-06 1.11031e-05)
(-1.29468e-05 -3.61517e-06 9.14757e-06)
(-1.09466e-05 -1.51272e-07 7.22689e-06)
(-1.25507e-05 5.42694e-06 7.26729e-06)
(-1.15118e-05 1.48432e-06 6.49936e-06)
(-1.38274e-05 -5.74356e-06 5.93504e-06)
(-1.26099e-05 -8.21782e-06 9.37328e-06)
(-1.23782e-05 -3.77304e-06 5.63015e-06)
(-1.15929e-05 -1.85111e-06 4.33453e-06)
(-1.09782e-05 4.93267e-06 7.2235e-06)
(-8.44781e-06 -5.30003e-08 9.32535e-06)
(-9.85836e-06 3.06643e-06 1.22836e-05)
(-8.7342e-06 9.20178e-06 6.26131e-06)
(-1.19884e-05 -1.57919e-06 6.43893e-06)
(-1.37738e-05 -1.31955e-06 8.87482e-06)
(-5.35742e-06 6.56054e-06 3.89978e-06)
(-1.35946e-05 1.10414e-06 9.92403e-06)
(-1.05312e-05 3.16254e-06 5.40211e-06)
(-1.27657e-05 -6.39413e-06 9.20516e-06)
(-3.81877e-06 1.4655e-06 8.50823e-06)
(-2.64746e-06 7.3713e-07 8.89751e-06)
(-2.93512e-06 -4.73145e-06 1.06443e-05)
(-3.56123e-06 -5.69158e-06 1.01299e-05)
(-5.97346e-06 -3.94024e-06 5.05554e-06)
(-5.77737e-06 3.88622e-06 5.30662e-06)
(-4.45234e-05 7.33845e-06 1.04752e-05)
(-3.31834e-05 -1.65301e-05 5.36605e-06)
(-2.91338e-05 -1.49285e-05 1.00103e-05)
(-3.41117e-05 -1.77497e-05 6.02405e-06)
(-4.55424e-05 -2.71189e-06 -5.65803e-06)
(-4.64541e-05 2.44713e-05 8.91895e-06)
(-3.56319e-05 3.32065e-07 -1.1139e-07)
(-9.68972e-06 2.88118e-06 -2.95581e-06)
(-1.19112e-05 3.10234e-06 -4.16632e-06)
(-9.69493e-06 3.09451e-06 -2.79028e-06)
(-1.04713e-05 -3.04322e-06 -3.31514e-06)
(-7.6037e-06 6.01005e-06 -2.91929e-06)
(-1.08302e-05 6.62148e-06 -3.77288e-06)
(-1.03519e-05 5.70135e-06 -4.39504e-06)
(-1.2201e-05 -2.81494e-06 -4.32404e-06)
(-1.25198e-05 4.34539e-06 -2.18156e-06)
(-1.09976e-05 1.93636e-06 -3.4843e-06)
(-9.58481e-06 -3.44851e-06 -2.92147e-06)
(-1.21844e-05 -4.32982e-06 -5.43858e-06)
(-9.33586e-06 -4.69786e-06 -3.98328e-06)
(-1.45279e-05 -2.45464e-06 -5.14132e-06)
(-1.18171e-05 5.01542e-06 -3.55243e-06)
(-1.41915e-05 -2.00463e-06 -4.91934e-06)
(-1.4618e-05 -7.0376e-07 -4.81194e-06)
(-1.36492e-05 4.87122e-06 -4.8602e-06)
(-9.26796e-06 6.80041e-06 -4.33726e-06)
(-8.01517e-06 5.10872e-07 -4.72204e-06)
(-8.44955e-06 3.33489e-06 -5.90979e-06)
(-9.84629e-06 -2.98468e-06 -3.39259e-06)
(-6.97303e-06 5.31016e-06 -2.64238e-06)
(-7.37526e-06 9.6486e-07 -4.3347e-06)
(-5.95954e-06 4.2846e-07 -3.55908e-06)
(-6.96413e-06 -3.21549e-06 -3.02957e-06)
(-6.52457e-06 3.0816e-06 -2.51441e-06)
(-9.98572e-06 -9.60915e-07 -4.85052e-06)
(-7.19634e-06 4.60922e-06 -5.32757e-06)
(-1.31964e-05 3.20667e-06 -6.6422e-06)
(-7.17608e-06 3.90432e-06 -6.20873e-06)
(-6.85611e-06 3.00949e-06 -2.85446e-06)
(-9.81169e-06 5.01941e-06 -3.77941e-06)
(-1.01147e-05 -1.91109e-06 -4.97715e-06)
(-7.42214e-06 3.53755e-06 -3.03249e-06)
(-9.23299e-06 3.46963e-06 -3.83598e-06)
(-7.24407e-06 7.0459e-06 -4.20211e-06)
(-9.72658e-06 -4.65023e-07 -5.3705e-06)
(-1.08889e-05 2.47426e-06 -5.59713e-06)
(-9.65635e-06 5.68736e-06 -6.63558e-06)
(-8.18425e-06 8.38047e-06 -4.58957e-06)
(-1.4601e-05 -2.23845e-06 -5.03317e-06)
(-1.06101e-05 -3.3253e-06 -5.43665e-06)
(-8.04613e-06 6.60367e-06 -3.68309e-06)
(-1.26852e-05 -8.89884e-07 -6.2554e-06)
(-8.66203e-06 -2.01975e-07 -4.45808e-06)
(-9.55187e-06 -4.00965e-06 -5.42135e-06)
(-1.13931e-05 -2.76314e-06 -3.95633e-06)
(-1.02037e-05 -3.68248e-06 -4.18355e-06)
(-1.07753e-05 4.39863e-06 -4.79466e-06)
(-1.2013e-05 -2.60234e-06 -6.33604e-06)
(-1.0968e-05 -4.71112e-06 -4.44826e-06)
(-1.46145e-05 4.0434e-06 -6.22536e-06)
(-1.11745e-05 5.3716e-06 -3.7528e-06)
(-1.01723e-05 -6.48653e-06 -5.03811e-06)
(-1.04912e-05 1.2163e-08 -3.82496e-06)
(-1.26823e-05 5.47117e-06 -4.52481e-06)
(-1.41518e-05 -4.07153e-07 -4.53039e-06)
(-1.54272e-05 -2.67111e-06 -5.39112e-06)
(-1.01495e-05 -8.10315e-06 -5.06093e-06)
(-1.07594e-05 4.30057e-06 -4.06794e-06)
(-9.11378e-06 3.87727e-06 -5.17967e-06)
(-7.57106e-06 7.53553e-06 -4.95042e-06)
(-1.46457e-05 -1.05117e-05 -1.68345e-05)
(-1.46616e-05 -7.83322e-06 -1.99722e-05)
(-9.07569e-06 -1.33027e-06 -1.03924e-05)
(-1.69075e-05 -6.81176e-06 -1.75016e-05)
(-1.46907e-05 -7.47532e-06 -1.51506e-05)
(-1.29273e-05 1.8681e-06 -1.78692e-05)
(-9.24927e-06 8.52265e-06 -1.23188e-05)
(-7.82341e-06 9.54646e-06 -1.4347e-05)
(-1.10937e-05 -3.63529e-06 -2.10493e-05)
(-1.89033e-05 6.70488e-06 -1.81675e-05)
(-1.39565e-05 -4.17825e-06 -2.0965e-05)
(-1.34673e-05 -1.18799e-05 -2.35307e-05)
(-7.95986e-06 -2.58314e-07 -1.37977e-05)
(-8.39383e-06 3.6374e-06 -9.59071e-06)
(-1.1949e-05 -4.91592e-06 -1.30075e-05)
(-3.88433e-06 -4.77006e-06 -2.06448e-05)
(-5.15763e-06 -6.28666e-06 -1.18045e-05)
(-6.50694e-06 -1.87177e-06 -6.78291e-06)
(-7.19686e-06 -1.26713e-07 -9.27707e-06)
(-4.99285e-06 6.01813e-06 -2.16922e-05)
(-1.06355e-05 -4.37109e-06 -1.81948e-05)
(-5.06869e-06 -1.07144e-05 -1.10781e-05)
(-9.76361e-06 3.78372e-06 -1.37812e-05)
(-6.77762e-06 -2.15889e-06 -1.39015e-05)
(-6.25295e-06 -4.15347e-06 -1.32815e-05)
(-8.39244e-06 1.19197e-07 -7.98275e-06)
(-1.61994e-05 4.85128e-06 -1.89259e-05)
(-1.30219e-05 -3.14163e-06 -8.14756e-06)
(-9.22387e-06 -7.19107e-06 -1.36525e-05)
(-8.42254e-06 1.06104e-05 -8.55597e-06)
(-1.58929e-05 -3.60783e-06 -1.95754e-05)
(-1.60358e-05 7.06657e-06 -1.63024e-05)
(-8.49038e-06 -4.72368e-06 -1.0648e-05)
(-1.41922e-05 -4.28598e-06 -1.45225e-05)
(-1.20495e-05 9.85621e-06 -1.24516e-05)
(-1.48816e-05 -9.65825e-06 -1.35266e-05)
(-9.371e-06 -1.14109e-05 -1.25656e-05)
(-7.84451e-06 5.86085e-06 -1.33253e-05)
(-8.00575e-06 -4.44285e-06 -8.23344e-06)
(-6.93745e-06 -4.83156e-06 -1.29102e-05)
(-1.61111e-05 5.11721e-06 -2.48741e-06)
(-1.06803e-05 -9.86737e-07 -1.89902e-05)
(-1.01699e-05 7.18289e-06 -1.85165e-05)
(-9.35169e-06 1.05615e-05 -1.32923e-05)
(-1.23917e-05 2.97614e-06 -1.49034e-05)
(-8.65629e-06 5.28059e-06 -9.02788e-06)
(-1.01638e-05 2.85291e-06 -1.41618e-05)
(-1.53269e-05 2.65535e-06 -1.47238e-05)
(-1.02391e-05 1.28016e-05 -1.33282e-05)
(-1.94406e-05 8.17863e-06 -2.06958e-05)
(-1.61794e-05 -9.54751e-06 -1.83623e-05)
(-6.59522e-06 6.29974e-06 -1.28269e-05)
(-9.12344e-06 -8.02437e-06 -9.22429e-06)
(-1.00816e-05 -3.75048e-06 -1.56975e-05)
(-1.17677e-05 1.23401e-06 -1.5511e-05)
(-9.65906e-06 -2.9456e-06 -3.13745e-06)
(-6.01801e-06 5.50585e-06 -3.88782e-06)
(-9.54084e-06 -7.15434e-06 -1.2772e-05)
(-1.0535e-05 -5.02053e-06 -1.11914e-05)
(-6.29097e-06 7.58102e-07 -8.38887e-06)
(-1.01633e-05 4.44096e-06 -6.75052e-06)
(-5.55972e-06 -3.84699e-07 -9.81733e-06)
(-1.35924e-05 -1.1942e-06 -1.7425e-05)
(-4.39701e-06 -4.81524e-06 -5.67807e-06)
(-8.12828e-06 -2.74425e-06 -1.01554e-05)
(-4.10003e-06 -3.59505e-06 -4.55156e-06)
(-5.80892e-06 -3.09318e-06 -6.55297e-06)
(-8.00639e-06 -4.85609e-07 -1.03215e-05)
(-7.9388e-06 1.59249e-06 -6.32873e-06)
(-6.38427e-06 1.99462e-07 -4.95343e-06)
(-5.06406e-06 -4.17034e-06 -5.47756e-06)
(-5.66403e-06 -3.97268e-06 -6.45156e-06)
(-7.48289e-06 2.39481e-07 -1.0006e-05)
(-9.43765e-06 -8.11036e-06 -1.0916e-05)
(-6.01975e-06 2.515e-06 -7.37304e-06)
(-1.08132e-05 1.54911e-06 -8.01623e-06)
(-5.10399e-06 1.24389e-06 -6.95361e-06)
(-8.00057e-06 -4.88699e-06 -8.99604e-06)
(-9.97105e-06 -3.2258e-06 -1.09749e-05)
(-6.27402e-06 1.09552e-06 -9.04366e-06)
(-1.00935e-05 4.2545e-06 -8.58147e-06)
(-9.02256e-06 2.77179e-06 -1.11384e-05)
(-3.96286e-06 -4.63973e-07 -4.14431e-06)
(-6.76832e-06 -1.58735e-06 -7.04021e-06)
(-4.94857e-06 -3.44172e-06 -4.85251e-06)
(-4.07915e-06 -6.0868e-06 -6.73343e-06)
(-8.83616e-06 -6.62439e-06 -5.19293e-06)
(-1.00342e-05 2.21165e-06 -4.44818e-06)
(-4.93491e-06 -6.94141e-06 -4.95418e-06)
(-1.05902e-05 2.1842e-07 -6.54952e-06)
(-9.61362e-06 -5.96707e-07 -4.85616e-06)
(-7.69081e-06 -2.0883e-06 -4.63718e-06)
(-7.07222e-06 7.78594e-07 -4.11193e-06)
(-5.47666e-06 -1.39383e-06 -4.39353e-06)
(-7.73265e-06 3.46294e-06 -4.83776e-06)
(-1.13556e-05 1.17148e-06 -9.71886e-06)
(-1.17429e-05 1.70435e-07 -5.52053e-06)
(-6.97676e-06 -3.06999e-06 -7.10103e-06)
(-5.97853e-06 -3.6856e-06 -8.82029e-06)
(-7.83265e-06 5.82076e-06 -1.10432e-05)
(-6.50618e-06 -5.04426e-06 -4.21925e-06)
(-6.07338e-06 -1.21395e-06 -1.06627e-05)
(-9.20234e-06 -2.33757e-06 -8.09654e-06)
(-1.0197e-05 6.01675e-06 -9.80101e-06)
(-6.44519e-06 -4.60506e-06 -9.53329e-06)
(-1.01768e-05 -4.70986e-06 -6.47953e-06)
(-9.95395e-06 4.36234e-06 -1.18775e-05)
(-1.11881e-05 -3.42684e-06 -9.68536e-06)
(-8.47441e-06 3.19519e-06 -5.40912e-06)
(-8.07423e-06 7.10825e-06 -6.83335e-06)
(-1.15883e-05 -4.05203e-06 -1.01234e-05)
(-2.28372e-05 1.27712e-07 1.98489e-06)
(-2.60383e-05 -1.72039e-06 2.92232e-06)
(-2.25286e-05 1.1444e-05 5.19397e-07)
(-1.5945e-05 -1.46672e-05 3.26085e-08)
(-2.75531e-05 3.70907e-06 1.06791e-06)
(-1.50195e-05 1.14978e-05 3.65656e-06)
(-1.67053e-05 1.19154e-05 -5.7784e-08)
(-2.46047e-05 -6.3154e-06 -3.32542e-07)
(-2.14085e-05 -3.502e-06 -3.81456e-06)
(-2.30556e-05 -7.65615e-06 -4.72446e-07)
(-1.01832e-05 3.34265e-06 1.16118e-05)
(-1.65452e-06 -1.73782e-06 1.37053e-05)
(-5.47017e-06 -7.11387e-06 8.17185e-06)
(-8.68901e-06 -1.7992e-06 1.62243e-05)
(-9.1311e-06 -6.78924e-06 1.4465e-05)
(-9.071e-06 -3.16849e-06 1.1471e-05)
(-7.54719e-06 3.81946e-06 1.02354e-05)
(-1.1393e-05 -5.8144e-06 1.91662e-05)
(-7.15335e-06 -2.19527e-06 1.19418e-05)
(-6.75438e-06 -4.08553e-06 1.14594e-05)
(-5.41371e-06 5.47223e-06 1.01042e-05)
(-3.68353e-06 2.92886e-06 8.90146e-06)
(-8.56495e-06 1.13342e-06 1.57214e-05)
(-2.86901e-06 -1.46865e-06 6.0142e-06)
(-2.55697e-06 -4.93706e-06 9.80333e-06)
(2.8711e-07 6.56016e-07 9.90228e-06)
(-4.20324e-06 2.79494e-06 1.31725e-05)
(-1.58494e-06 -1.2721e-06 9.19199e-06)
(-1.73724e-06 -9.82852e-06 9.48167e-06)
(-8.78554e-06 -3.8011e-06 1.44277e-05)
(-6.44464e-06 -4.57845e-06 1.11284e-05)
(-5.50715e-06 5.38453e-07 1.07883e-05)
(-1.04632e-05 -3.80915e-06 1.49995e-05)
(-3.65709e-06 7.67679e-06 1.27226e-05)
(-5.62827e-06 -1.35045e-06 1.26332e-05)
(-4.42149e-06 2.29403e-06 1.13772e-05)
(-4.53093e-06 1.68972e-06 5.01369e-06)
(-1.69448e-06 6.76539e-06 6.38614e-06)
(-5.88182e-06 -1.0298e-05 9.29179e-06)
(-8.47922e-06 -9.47061e-06 1.05534e-05)
(-1.01409e-05 4.50416e-07 1.4488e-05)
(-9.94454e-06 -3.25164e-06 1.53452e-05)
(-2.01109e-05 -3.54704e-06 8.83562e-06)
(-2.32298e-05 -7.69335e-06 -5.08971e-06)
(-8.21784e-06 -6.4955e-06 -2.00514e-06)
(-1.51856e-05 1.04229e-06 5.52012e-06)
(-5.09534e-06 -3.04828e-06 -7.92592e-06)
(-4.09425e-06 1.36032e-06 -5.0737e-06)
(-2.87718e-06 4.88985e-06 -5.7208e-06)
(-4.91498e-06 -4.1996e-06 -6.75881e-06)
(-3.45553e-06 -1.24451e-06 -5.52206e-06)
(-3.61657e-06 3.99409e-07 -5.51345e-06)
(-7.13757e-06 4.3538e-06 -7.76456e-06)
(-3.72478e-06 4.29329e-06 -4.47697e-06)
(-6.44188e-06 -3.80423e-06 -1.03208e-05)
(-4.78018e-06 -5.50901e-06 -8.15502e-06)
(-5.6033e-06 1.56883e-06 -7.2054e-06)
(-6.20376e-06 3.87255e-06 -7.01983e-06)
(-4.32863e-06 5.7013e-06 -5.6727e-06)
(-6.56792e-06 3.52669e-06 -7.73726e-06)
(-6.63159e-06 1.73618e-06 -9.68438e-06)
(-6.95363e-06 -4.88059e-06 -6.41209e-06)
(-5.02695e-06 4.93487e-06 -6.20806e-06)
(-5.13975e-06 -2.60485e-07 -6.75934e-06)
(-5.22052e-06 1.44799e-06 -5.44002e-06)
(-6.13689e-06 3.02524e-07 -7.62978e-06)
(-7.23777e-06 -7.19874e-08 -1.0419e-05)
(-6.04887e-06 -4.32821e-06 -8.3874e-06)
(-7.75018e-06 -3.03904e-06 -5.93293e-06)
(-5.83261e-06 -1.92442e-06 -8.00937e-06)
(-6.96207e-06 -1.1203e-06 -5.6785e-06)
(-4.51177e-06 -5.23542e-06 -8.30533e-06)
(-6.59339e-06 2.38085e-06 -8.00119e-06)
(-9.50368e-06 1.4113e-07 -9.91249e-06)
(-5.40843e-06 7.52727e-06 -8.17459e-06)
(-5.61215e-06 -4.39601e-06 -5.95228e-06)
(-6.30014e-06 -3.10248e-06 -6.72292e-06)
(-7.84669e-06 2.89214e-06 -5.79279e-06)
(-5.43574e-06 2.20029e-06 -4.42716e-06)
(-4.7831e-06 1.90786e-06 -4.35511e-06)
(-6.13884e-06 -1.93735e-06 -4.7981e-06)
(-1.10367e-05 1.59106e-06 -6.72452e-06)
(-7.35291e-06 -4.50076e-07 -2.85463e-06)
(-6.29061e-06 -2.01636e-06 -5.9871e-06)
(-8.34182e-06 -4.61399e-06 -5.33816e-06)
(-3.28824e-06 -2.93882e-07 -3.02542e-06)
(-6.27234e-06 1.17271e-07 -4.50359e-06)
(-5.31881e-06 -6.09477e-07 -5.1163e-06)
(-9.18178e-06 -7.83764e-08 -4.90573e-06)
(-7.25864e-06 4.24802e-06 -5.90316e-06)
(-6.42065e-06 -4.06936e-07 -3.53386e-06)
(-7.8906e-06 -3.86533e-06 -6.57319e-06)
(-2.18551e-05 1.01976e-05 -5.14995e-06)
(-6.60248e-06 -3.88026e-07 -5.14063e-06)
(-4.95945e-06 -1.77621e-06 -4.48142e-06)
(-7.54786e-06 -3.79714e-06 -7.33006e-06)
(-5.0531e-06 3.99827e-06 -4.10606e-06)
(-8.36664e-06 1.43048e-06 -8.13976e-06)
(-6.91533e-06 4.82472e-06 -7.66172e-06)
(-8.08378e-06 4.29017e-06 -9.05996e-06)
(-5.80342e-06 -4.16109e-06 -6.63042e-06)
(-2.66071e-06 4.29971e-06 -8.0284e-06)
(-1.11417e-05 -2.01698e-07 -9.73636e-06)
(-7.03596e-06 6.675e-06 -5.65693e-06)
(-5.4753e-06 5.65261e-07 -9.49535e-06)
(-6.12594e-06 5.05896e-06 -4.30528e-06)
(-5.62428e-06 2.51397e-06 -4.57104e-06)
(-4.57552e-06 -4.74548e-06 -3.76448e-06)
(-2.69333e-06 2.25728e-06 -6.20759e-06)
(-6.3323e-06 -4.25902e-06 -3.88992e-06)
(-2.67266e-05 1.26892e-05 -8.38154e-06)
(-3.11928e-05 -3.46174e-06 -1.75161e-05)
(-2.78956e-05 -6.1371e-06 -8.56663e-06)
(-4.43064e-05 -4.36074e-06 -2.26718e-05)
(-1.53007e-05 -8.33644e-07 3.10463e-06)
(-1.2709e-05 3.71334e-06 -2.18052e-07)
(-1.6292e-05 -1.89173e-06 -2.33762e-05)
(-1.94254e-05 -3.03348e-06 -1.03427e-05)
(-2.47427e-05 -4.37857e-06 -1.36482e-05)
(-2.09302e-05 6.45849e-07 -7.72948e-06)
(-2.10219e-05 -1.21267e-05 -2.0108e-05)
(-1.92297e-05 -1.68652e-05 -2.6703e-05)
(-2.69186e-05 1.48893e-05 -1.37963e-05)
(-2.65573e-05 -2.4988e-06 -2.02665e-05)
(-2.31688e-05 1.15217e-05 -1.08048e-05)
(-2.5941e-05 1.67726e-05 -1.07878e-05)
(-3.29807e-05 -5.66862e-06 -1.46387e-05)
(-1.6997e-05 -9.85274e-06 -2.1293e-05)
(-2.69432e-05 1.15088e-05 -9.1375e-06)
(-3.09502e-05 4.60927e-06 -2.18954e-05)
(-1.74311e-05 -6.35304e-06 -1.17914e-05)
(-1.41778e-05 -5.16148e-06 -8.01377e-06)
(-1.66492e-05 -5.56626e-06 -1.02016e-05)
(-1.83592e-05 -1.09181e-06 -4.13465e-06)
(-1.34907e-05 -9.01808e-06 -1.185e-05)
(-2.57898e-05 -7.84714e-06 -8.15119e-06)
(-1.82894e-05 -9.77616e-06 -6.25561e-06)
(-1.40012e-05 -9.01809e-06 -1.08747e-05)
(-1.99168e-05 1.21194e-05 -7.63328e-06)
(-2.59547e-05 4.51428e-06 -1.73687e-05)
(-1.8639e-05 -1.04498e-05 -2.39987e-06)
(-2.18612e-05 -9.9032e-06 -2.92933e-06)
(-2.25827e-05 -1.23299e-05 -4.42989e-06)
(-2.42793e-05 7.38439e-06 -4.87954e-07)
(-2.64648e-05 -1.12533e-05 -8.01738e-06)
(-3.28546e-05 1.22688e-05 -9.40064e-06)
(-2.95017e-05 6.26033e-06 -9.37702e-06)
(-2.87832e-05 -1.72348e-06 -9.2538e-06)
(-2.85645e-05 1.81056e-06 -1.74471e-05)
(-2.72117e-05 -4.70634e-06 -1.37582e-05)
(-2.00392e-05 -1.07433e-05 -7.70799e-06)
(-2.44389e-05 -6.28939e-06 -1.41036e-05)
(-2.56937e-05 -8.38529e-07 -1.99416e-05)
(-2.24321e-05 -2.04657e-05 -1.65232e-05)
(-1.84621e-05 -1.206e-05 -1.08263e-05)
(-1.92793e-05 1.4928e-06 -1.10605e-05)
(-2.78139e-05 -4.60407e-06 -3.47186e-06)
(-1.73141e-05 -2.68272e-06 -7.86632e-06)
(-2.30531e-05 1.59329e-05 -1.97722e-05)
(-2.21947e-05 -2.17794e-06 1.59092e-06)
(-1.84714e-05 6.19671e-06 5.12387e-06)
(-1.31672e-05 9.16553e-06 4.20859e-06)
(-1.76227e-05 9.50928e-06 2.6285e-06)
(-2.05603e-05 -9.38997e-06 2.36298e-06)
(-1.35966e-05 2.44379e-07 -1.96493e-06)
(-1.04837e-05 5.91832e-06 4.61212e-06)
(-1.25454e-05 4.11738e-06 3.71978e-06)
(-2.11803e-05 2.07203e-07 3.7222e-07)
(-1.90621e-05 -3.83723e-07 -9.56281e-07)
(-2.16013e-05 4.67797e-06 2.3559e-06)
(-1.13951e-05 1.4414e-05 1.65643e-06)
(-1.95621e-05 -2.75062e-06 1.92298e-06)
(-2.29474e-05 -3.68778e-06 -9.6028e-07)
(-2.54008e-05 8.95403e-06 1.92015e-06)
(-1.63154e-05 -9.45965e-06 2.58359e-06)
(-1.73883e-05 1.02864e-05 1.42925e-06)
(-1.54513e-05 2.34458e-06 4.53269e-06)
(-1.50619e-05 5.67033e-06 8.74323e-06)
(-1.79352e-05 -1.42166e-05 -4.24081e-07)
(-1.65365e-05 3.46095e-06 -2.06022e-06)
(-1.90511e-05 -9.25754e-07 1.71702e-06)
(-2.91934e-05 2.78949e-07 -7.67623e-06)
(-2.7177e-05 1.34633e-06 -5.84098e-06)
(-2.01478e-05 1.29556e-05 -6.56247e-07)
(-1.46031e-05 5.83596e-06 -9.03805e-06)
(-1.80679e-05 -1.49441e-05 -4.74001e-06)
(-1.65714e-05 2.42417e-06 -7.27689e-06)
(-2.33644e-05 4.26116e-06 -3.3104e-06)
(-1.7079e-05 5.40012e-06 -8.12397e-06)
(-1.56592e-05 -8.12134e-06 -8.77828e-06)
(-1.55428e-05 4.92705e-06 -9.40178e-06)
(-9.94348e-06 1.21194e-07 -5.67691e-06)
(-1.45294e-05 9.87023e-06 -1.10436e-06)
(-1.37707e-05 -5.73336e-06 -6.58955e-06)
(-1.72537e-05 -7.05642e-06 -6.95698e-06)
(-1.01341e-05 -2.12184e-06 -4.73843e-06)
(-1.96534e-05 1.35337e-05 -6.64864e-06)
(-1.63533e-05 -2.23152e-06 -4.91197e-06)
(-1.78419e-05 2.48648e-06 -2.56175e-06)
(-1.76566e-05 -6.25713e-06 -1.67372e-06)
(-1.59299e-05 3.56573e-06 -3.8547e-06)
(-2.32581e-05 2.79924e-06 -7.53186e-06)
(-1.24604e-05 -1.45567e-06 -4.9708e-06)
(-2.46993e-05 -4.18095e-06 -4.16909e-06)
(-1.75125e-05 3.50717e-06 -1.20297e-06)
(-1.76988e-05 8.24996e-06 -4.03983e-06)
(-2.76743e-05 -3.17713e-06 2.16681e-06)
(-1.9215e-05 4.80153e-06 -5.28751e-06)
(-2.7044e-05 -1.43402e-06 -1.06245e-05)
(-1.68437e-05 1.06882e-05 -3.4255e-06)
(-1.48531e-05 -5.95886e-06 -3.71043e-06)
(-1.45032e-05 -5.1499e-06 -4.66421e-06)
(-1.87459e-05 -5.88117e-06 -8.3343e-06)
(-2.40116e-05 7.39812e-07 6.98493e-06)
(-1.67923e-05 2.47166e-06 3.41749e-06)
(-2.21516e-05 6.98163e-06 4.12489e-06)
(-1.40243e-05 -1.06507e-06 -5.59817e-06)
(-2.6788e-05 -3.30042e-06 4.82771e-06)
(-2.0208e-05 1.53782e-06 2.92279e-06)
(-1.65678e-05 8.28859e-06 3.25866e-08)
(-1.35544e-05 8.22664e-06 6.35566e-07)
(-2.4641e-05 1.32417e-05 -1.01491e-05)
(-1.99761e-05 -4.31425e-07 -6.5623e-06)
(-1.18693e-05 1.05765e-05 -6.26461e-06)
(-1.71997e-05 -3.5235e-06 -9.32402e-06)
(-1.82456e-05 -2.41701e-06 -8.59998e-06)
(-1.57191e-05 2.68439e-06 -8.43513e-06)
(-2.13712e-05 3.98243e-06 -1.05779e-05)
(-9.41986e-06 -1.0267e-05 -3.42585e-06)
(-1.74685e-05 6.77674e-07 -6.96663e-06)
(-1.54117e-05 4.00909e-06 -1.71745e-06)
(-1.91167e-05 -7.09694e-06 1.60517e-06)
(-2.16415e-05 -7.79024e-06 -9.01626e-06)
(-1.77865e-05 -9.45303e-06 -7.94492e-06)
(-1.79647e-05 -7.32085e-09 -8.71241e-06)
(-2.15476e-05 5.35127e-06 -9.26121e-06)
(-1.52299e-05 9.56222e-06 -5.58909e-06)
(-1.14872e-05 -8.78949e-06 -8.83505e-06)
(-1.93284e-05 2.03779e-06 -7.20905e-06)
(-1.25742e-05 9.23006e-06 -2.19036e-06)
(-9.17008e-06 1.16533e-05 1.32891e-06)
(-2.03436e-05 7.09171e-06 6.47601e-07)
(-2.21816e-05 1.28066e-06 2.28598e-06)
(-2.15928e-05 5.72854e-06 -7.20424e-06)
(-1.9515e-05 8.64769e-06 -6.76289e-06)
(-2.17613e-05 6.40067e-06 -9.26479e-06)
(-1.13392e-05 1.09187e-05 -2.25717e-06)
(-2.11071e-05 -6.06146e-06 -2.60484e-06)
(-8.83234e-06 1.24165e-05 -5.11318e-06)
(-1.12351e-05 -8.11825e-06 -8.02011e-06)
(-1.34546e-05 -3.51839e-07 -4.68113e-06)
(-2.2816e-05 -3.36235e-06 -2.2838e-06)
(-1.16274e-05 -1.29383e-05 2.21978e-06)
(-1.55587e-05 -6.35708e-06 -5.17951e-06)
(-2.19283e-05 -5.54988e-06 2.54781e-06)
(-2.15763e-05 2.85042e-06 1.5497e-06)
(-1.62393e-05 7.95561e-06 1.1651e-06)
(-2.12711e-05 -6.14795e-06 3.48757e-06)
(-1.36873e-05 1.04907e-05 -1.19754e-06)
(-1.79192e-05 -3.11938e-06 3.24293e-06)
(-1.85948e-05 6.79926e-06 -1.06597e-06)
(-9.12565e-06 -2.67755e-06 -4.17468e-06)
(-1.09049e-05 4.28847e-06 -4.34838e-07)
(-1.81228e-05 3.90326e-06 -4.32992e-07)
(-1.62812e-05 -4.18902e-06 -7.79644e-06)
(-1.32771e-05 6.70041e-06 -4.18972e-06)
(-2.09608e-05 -2.14459e-06 9.86322e-07)
(-1.78787e-05 -4.05106e-06 4.73468e-07)
(-1.69329e-05 7.22975e-06 3.76231e-06)
(-1.55984e-05 6.93515e-06 -7.01676e-07)
(-1.11177e-05 1.01145e-05 1.85677e-06)
(-1.57119e-05 4.68778e-06 -7.97414e-07)
(-1.98578e-05 -4.40834e-06 1.104e-06)
(-1.29268e-05 8.61706e-06 3.14596e-06)
(-1.24776e-05 1.06527e-08 3.80875e-06)
(-2.22259e-05 9.15768e-06 2.47838e-06)
(-1.65579e-05 1.4383e-06 5.40115e-06)
(-1.37636e-05 4.26158e-06 8.83221e-07)
(-2.33798e-05 -7.44982e-07 -2.02586e-06)
(-1.62549e-05 -3.54217e-06 8.56973e-07)
(-1.56161e-05 4.9097e-06 4.3255e-07)
(-1.56109e-05 1.1279e-05 -4.18762e-07)
(-1.31557e-05 7.92189e-06 -6.62524e-07)
(-1.45213e-05 5.21397e-06 3.39035e-06)
(-2.16219e-05 4.34753e-06 1.0866e-06)
(-1.50916e-05 -2.86436e-06 -8.4371e-07)
(-2.01225e-05 5.76041e-06 -1.16932e-06)
(-3.59471e-06 1.3567e-06 5.32084e-06)
(-7.85273e-07 -1.99583e-06 9.22077e-06)
(-3.46313e-06 2.70723e-06 1.28429e-05)
(-4.57404e-06 5.07398e-06 9.39038e-06)
(-1.04517e-05 7.46603e-06 9.4475e-06)
(-1.84827e-05 7.68953e-07 8.45538e-06)
(-2.02318e-05 3.38821e-06 6.70796e-06)
(-1.69293e-05 -1.1657e-05 8.37045e-06)
(-1.63078e-05 -2.79151e-06 8.39622e-06)