/*--------------------------------*- C++ -*----------------------------------*\
| =========                 |                                                 |
| \\      /  F ield         | OpenFOAM: The Open Source CFD Toolbox           |
|  \\    /   O peration     | Version:  5.0                                   |
|   \\  /    A nd           | Web:      www.OpenFOAM.org                      |
|    \\/     M anipulation  |                                                 |
\*---------------------------------------------------------------------------*/
FoamFile
{
    version     2.0;
    format      ascii;
    class       volScalarField;
    location    "1.5";
    object      p;
}
// * * * * * * * * * * * * * * * * * * * * * * * * * * * * * * * * * * * * * //

dimensions      [0 2 -2 0 0 0 0];

internalField   nonuniform List<scalar> 
322252
(
2.09444
2.06417
2.07317
2.0608
2.0741
2.08188
2.07655
2.068
3.44395
3.03616
3.05563
3.58566
2.00065
1.98288
1.9894
1.97946
1.98501
1.97573
1.97241
2.04998
4.97977
4.98376
4.98348
4.99033
2.08658
4.97651
4.13268
4.12421
4.11882
3.29664
3.4395
4.07333
4.06837
4.08357
2.08574
4.93442
4.97021
4.90867
2.64255
4.1859
3.02657
2.08038
2.12892
3.28668
2.12059
4.44797
2.12598
4.44915
2.08398
3.0221
3.05085
2.05758
2.06394
3.05235
2.08051
3.25434
2.10499
2.0925
3.04968
2.0675
2.08334
2.08825
2.09713
2.10191
1.99074
2.02052
1.98609
1.99992
1.99612
2.007
2.02391
2.00384
1.94023
1.90793
1.93407
1.93474
1.94246
1.92658
1.92685
1.9444
1.94919
1.97834
1.98548
1.96382
1.97932
1.97008
1.96495
1.97624
1.95297
1.92548
1.92942
1.93898
1.90903
1.94029
1.93179
1.9445
3.38831
1.90949
1.94813
1.93354
3.01655
1.94477
1.81847
1.81641
3.26238
3.02712
1.9731
1.96153
1.96444
3.26889
1.96418
3.37976
3.03146
1.96225
1.94604
1.97413
1.97686
1.97038
1.93437
3.96958
1.97243
3.06153
1.9484
1.9821
1.96846
1.97524
1.96558
1.99067
3.37458
1.98038
1.9869
2.01383
1.99402
3.39696
1.99398
3.03217
3.59052
2.00464
2.03158
3.5911
3.5892
2.00555
3.59291
2.01403
2.04218
2.05384
2.03054
3.15562
3.15738
2.03676
0.0689743
2.02612
1.98336
0.0566087
3.0677
0.118362
0.0886691
3.38026
4.98651
3.37487
2.0183
4.98643
1.99834
3.37061
2.13901
2.14343
2.00681
2.13945
2.02009
4.30399
4.29663
4.29327
3.37479
3.19937
3.19727
3.38254
1.99869
1.13294
2.02656
3.37597
1.13122
1.93501
2.01309
4.29288
2.8231
2.28286
2.02756
2.02674
2.01622
3.7798
2.01824
1.46581
1.52454
3.36865
3.44249
3.371
3.36905
3.0853
3.08398
3.39409
3.0529
3.06307
1.94682
1.948
1.94707
4.01232
1.95218
4.01263
1.94864
1.93545
1.98214
1.97189
1.96939
1.94892
1.95069
1.97004
1.98158
1.96928
1.95626
1.94183
1.95582
1.96898
1.97078
1.95395
1.94457
3.04994
1.97538
1.94609
1.94633
3.05387
1.95441
1.93641
1.96886
4.03454
3.57326
1.95358
1.95831
3.59374
1.95967
3.62231
1.97578
1.95676
1.96983
1.99982
1.9849
1.98345
1.97127
1.99606
3.59204
3.69317
1.98106
3.39454
3.40221
3.68973
1.97436
3.69758
1.98343
3.71711
1.9653
1.99648
3.47548
3.52426
1.97602
1.98175
1.96328
1.98251
1.98607
1.9538
1.95016
1.95151
1.98856
1.973
3.49802
2.86558
2.87591
1.99988
2.87597
2.91998
3.58514
3.57967
3.05293
1.94224
3.57969
3.56983
3.56905
3.57717
3.6776
3.67313
3.38746
3.66269
1.97509
3.384
3.39616
3.66444
3.39298
3.67107
3.68365
3.05252
3.2845
2.01435
2.01705
3.04002
3.25652
3.26554
2.03146
2.0373
2.00922
1.98477
2.00226
2.02356
2.00517
2.02629
3.06415
1.94347
3.03936
1.97347
1.96265
1.95393
3.36205
3.36077
2.00816
1.97229
1.96581
1.99099
1.99021
1.99872
1.98587
1.97607
3.35861
1.97232
3.41151
1.99366
1.99316
1.99094
3.35111
3.34734
3.35249
1.97602
2.02075
1.9989
1.99989
1.98342
3.4743
3.47451
3.38844
3.4662
3.4783
3.37737
3.46106
3.46555
3.20513
3.19859
3.46903
2.01695
3.18867
2.00273
2.0207
2.01305
3.11524
3.11495
3.10724
3.22471
1.97873
1.9907
3.197
3.19911
2.92617
4.18237
1.97345
1.96809
3.3485
2.01765
2.00044
1.9858
2.00368
1.97308
4.17356
2.03339
2.02296
2.02758
2.05003
4.06146
2.01745
3.04855
2.00746
2.03958
3.37093
4.07059
4.06353
3.98537
3.42613
3.43956
2.0023
3.21089
3.98477
2.01812
2.01108
3.46047
3.45372
2.02396
2.02615
3.41899
2.00331
2.00992
2.0228
2.01884
3.01559
3.20562
3.07304
2.03543
2.00114
2.00348
2.01803
3.09355
1.98125
3.98636
2.04867
2.04776
2.05115
2.02676
2.0382
2.04266
2.05837
2.05125
2.87649
2.03065
2.00761
3.10398
2.03048
2.87584
2.02397
2.87179
1.99625
1.9887
2.86363
2.01682
3.00166
1.99912
2.99328
2.00058
3.46997
2.05352
2.98286
3.46335
3.04922
2.04432
3.0475
3.48325
2.02009
3.28768
3.46941
2.04655
3.42244
3.09515
3.43179
2.48254
2.01729
2.06278
2.04026
3.44218
2.04448
2.05735
2.04044
2.03062
2.04544
2.5232
2.01229
2.01988
2.01954
2.33325
2.02837
2.35979
2.03887
2.05149
2.00787
2.00898
2.02857
2.04727
2.01821
2.0366
3.77564
2.93814
3.7738
3.30089
3.77915
3.39291
3.78915
3.79139
3.02139
2.89484
2.91857
2.90071
2.89374
2.9002
2.91261
3.09427
2.9393
2.96163
3.09182
2.93872
2.95455
2.9429
2.94571
2.95617
2.90752
2.89716
3.44396
2.91896
2.91105
2.90659
2.89259
2.89914
3.79325
2.96713
2.95661
2.97606
2.96632
3.74781
2.95957
3.28991
2.93876
2.93272
3.75572
2.95547
2.94573
2.94183
1.93702
1.94514
2.91123
2.91855
2.93265
1.965
1.95729
1.96295
2.9259
2.92063
2.897
2.88935
2.88871
2.91613
2.89441
2.89236
2.89254
3.43145
1.93559
2.89268
3.03519
3.39489
2.91348
2.89817
3.12212
3.1455
2.94553
2.96212
2.93522
2.93598
2.94059
2.9504
2.9405
2.94539
3.0022
2.98048
2.98468
3.30402
3.28951
3.08872
2.98722
2.97851
3.02418
3.0397
3.03495
3.02564
3.02943
3.03493
3.04572
2.32311
3.02379
3.01315
3.01135
3.00483
3.00682
3.01091
3.0082
3.018
2.98559
2.98176
3.00518
2.99237
2.99185
2.98538
2.99843
2.98677
2.96073
2.97181
2.97587
2.98141
2.976
2.97112
2.97592
3.3813
2.9796
3.00269
2.99725
2.99922
3.0013
2.99613
2.98748
2.99036
2.97527
2.99314
2.97314
2.98583
2.98983
2.99201
2.98239
2.97967
3.03333
2.9657
2.95947
2.98343
2.97391
2.96749
3.1614
3.16656
2.31173
2.9826
2.97498
2.29784
2.96713
2.97691
2.29703
2.30606
2.95309
2.30539
3.15897
2.38142
2.38272
2.37572
3.02894
3.03397
2.96357
2.9645
2.95196
2.94274
3.08465
3.2329
2.96055
2.96382
2.91661
2.89961
2.91765
3.38794
2.90646
2.91427
2.91989
2.90782
4.28809
2.94154
4.28711
4.29665
3.03758
3.40469
2.59217
3.24616
2.58422
2.58137
2.92124
3.06336
3.06515
2.49206
2.90896
2.49251
2.50187
2.50902
3.19866
1.87763
1.87636
2.50199
1.90175
2.49114
3.07913
1.90387
1.87206
1.89937
1.89308
2.63464
1.86688
2.62795
1.81569
1.75483
1.84507
3.05924
3.731
1.79617
3.73065
1.77767
1.93471
1.95111
1.92799
1.88641
1.90767
1.93043
1.94457
1.91898
1.84673
1.87
1.90802
1.90974
1.90071
1.85474
1.91514
1.8661
3.38663
1.89404
3.73237
1.9103
1.89719
3.39225
1.89147
3.05188
3.06807
3.08613
1.84369
1.83452
3.75391
3.02578
1.85868
1.87373
3.02186
3.10211
3.38199
1.85522
1.86417
1.89196
3.07606
3.37484
1.92578
3.10546
1.87628
1.93912
1.92014
1.9011
3.11614
1.91914
1.91625
1.9397
1.94444
1.89319
1.90937
1.92804
1.94098
1.90084
1.93976
1.94819
3.0929
1.89052
1.91626
1.93231
1.96937
1.93244
3.07698
3.08636
1.83088
1.8341
1.79172
3.10423
1.80008
3.11823
3.06718
1.86382
3.10749
1.85698
1.85877
1.87848
3.22071
3.09942
1.92665
1.88769
1.9194
1.86331
1.87952
1.87396
1.94179
1.90895
3.20244
1.87558
1.94219
3.76888
3.7729
3.78061
3.10557
3.1193
1.93401
1.88955
3.19121
1.94023
1.92753
1.90964
1.93901
1.92347
1.97711
1.96672
1.917
3.09715
3.13238
3.0263
1.94896
1.9651
2.02579
2.0444
2.02552
3.02286
3.01932
2.02343
3.02506
2.03405
1.99124
1.9676
3.0005
1.92258
1.94524
1.96516
1.95825
1.97543
1.86455
1.81974
1.89915
1.85234
1.85899
1.84046
1.88166
1.86288
4.113
1.89468
1.90327
1.93473
1.90726
1.94866
4.11998
4.10871
4.76534
1.89457
2.01243
3.01308
3.01474
4.76597
3.03703
4.75096
1.91238
1.93308
1.98852
2.99442
1.94685
1.92022
1.96614
1.93621
3.38084
1.94145
2.01119
2.98488
1.97297
1.96921
2.00511
1.9744
1.6082
1.6798
1.69404
1.65356
1.65685
1.63998
1.66444
1.68133
1.52804
1.44072
1.5376
1.51719
1.50355
1.48961
1.54742
1.51385
1.62807
4.77169
1.69047
1.71486
1.70242
1.70742
1.65336
1.68415
1.71559
3.40174
1.63758
1.71658
1.70148
3.39904
1.68512
3.38335
4.86945
1.69279
1.68733
1.6197
1.68713
1.65654
4.88111
4.8681
4.85207
1.70101
1.56148
1.6011
1.61611
3.39905
1.5802
3.39729
1.68251
1.71011
1.5945
1.67525
1.6941
1.69616
1.64444
1.65341
1.60275
1.65308
1.57179
1.67776
1.62986
1.63867
1.58764
1.5924
1.87121
1.92562
1.8564
1.85927
1.88448
1.90709
1.89103
1.87597
1.81569
3.01205
1.74668
1.76363
2.99223
3.39823
1.78036
1.7842
1.72455
1.71469
1.78135
1.71598
1.73653
1.70738
1.74472
1.73545
2.98073
2.9815
2.9916
1.73312
1.75109
1.76223
3.01217
2.99033
1.85949
1.9386
1.87678
2.98803
1.91839
1.92689
1.89108
1.89872
2.85602
2.85977
3.01912
1.7492
1.77541
3.39284
1.79758
3.70448
1.86774
3.08353
1.93105
3.70488
3.40298
3.39126
1.89803
3.18163
1.81312
3.96401
1.77947
2.99057
1.82298
1.76737
1.77626
1.80182
1.83299
3.01093
1.83066
1.752
1.80417
1.82845
1.84017
1.81908
3.07517
3.97709
2.99294
1.77152
1.77878
3.38691
1.78993
3.01214
1.85958
3.18673
1.86787
3.18997
2.98079
2.98266
1.88461
1.86593
3.09788
3.38418
2.9822
3.72489
3.73098
2.9736
3.75255
3.75339
1.75035
1.74369
1.80231
1.80161
1.78977
1.7559
1.74988
1.78392
1.77288
1.78844
1.83986
3.75207
3.75046
4.3829
1.82519
1.79405
1.89387
1.95804
4.38467
4.36949
4.38869
3.03759
3.02425
2.97111
1.89842
1.94682
1.89095
3.00899
2.9597
1.93177
4.45043
1.91516
3.01832
3.02782
1.86587
1.88093
2.9975
2.99941
3.00637
3.00271
2.2822
1.86941
1.75198
1.85671
1.80609
3.39676
1.83177
2.28557
1.82363
2.28571
1.87836
1.85751
2.29029
2.94594
1.87505
1.90057
1.76887
1.83676
1.85242
1.82449
1.81344
1.79268
1.81137
1.83511
1.88801
2.95186
3.39239
2.96038
2.96126
3.01389
2.81091
3.1449
3.02093
2.79514
2.80822
1.81407
1.79285
2.79549
1.81189
2.80683
3.38174
1.95277
3.0306
1.97855
1.97437
3.33629
1.94324
4.43559
1.94004
1.95573
1.84946
1.95476
1.93082
1.95207
1.91541
1.93291
1.85615
1.94571
1.91346
1.87177
1.91221
1.88265
1.88486
1.92162
4.42042
2.99191
2.99829
1.84814
1.85526
3.10648
1.81561
3.09212
3.11759
1.96624
1.87153
4.44021
4.41266
1.9445
4.42146
1.91883
3.08491
3.13708
3.61233
3.59964
3.60192
3.61291
3.07582
3.09704
1.9982
3.04724
3.07782
1.97296
3.13649
3.10746
1.97074
1.98422
3.11452
2.00977
2.01853
1.97849
1.99133
3.14051
1.99345
1.83071
1.98755
1.96719
1.8492
1.95619
1.82784
1.95777
1.86356
1.98522
1.93957
1.91972
1.94172
1.92795
1.93248
1.91307
1.91532
1.90767
1.97793
1.94339
1.94173
1.95385
1.94661
1.95995
1.96489
1.95669
1.9827
3.09668
2.00224
1.96427
1.96541
1.98484
1.9921
1.97312
1.96002
1.94031
1.96686
1.98623
1.97255
1.96009
1.96718
1.97929
1.98866
3.12261
1.99841
1.98366
1.98089
1.97014
2.00228
2.00225
1.85027
1.95904
1.9456
1.92451
1.95055
2.37307
1.95121
2.38967
3.11606
3.08382
1.89799
1.91811
1.91203
2.18865
1.91603
2.19228
1.86163
3.08902
1.9048
1.89466
1.89113
1.87476
3.06691
3.2316
3.01157
3.05656
3.05503
1.8938
3.19652
1.91765
3.08325
3.04511
1.90868
1.89058
3.05428
3.17843
3.0671
1.90863
3.38652
3.13378
1.916
2.20168
3.12505
3.10852
3.22559
3.05945
1.93345
4.03828
1.92535
1.8956
1.89481
4.04578
4.03672
3.05069
1.9108
1.92406
3.05427
3.04993
1.87924
3.05518
1.92816
3.21171
1.93071
3.09275
3.08483
3.09182
1.82868
3.09794
3.10523
3.11046
3.09853
3.09811
1.7737
1.75616
1.8052
1.78447
1.78227
1.76638
1.81006
1.77081
1.83846
1.87864
3.06919
1.86817
3.0735
1.86604
3.0759
1.85404
1.85224
1.83544
1.81232
1.85161
1.84353
1.84376
1.83126
1.82893
3.09183
1.84856
1.84103
1.81071
1.83358
1.82011
1.8252
1.84123
3.08854
1.83856
3.10377
1.79779
1.80275
1.79718
1.801
1.81243
1.82119
1.88114
1.79718
3.08777
3.06928
1.86007
1.85447
3.05834
3.09956
1.82207
1.8244
3.11361
3.11483
3.09828
3.08463
3.13135
1.93296
1.95808
1.92688
3.13179
3.10262
1.94709
3.02779
1.94121
1.93717
1.94008
3.03254
1.91417
1.93259
3.02202
3.02534
1.93013
1.93178
3.04004
1.93209
3.06598
3.37682
3.03253
2.99601
1.91535
1.89904
1.8591
1.87625
3.03288
2.23995
3.05405
1.87548
1.88282
3.10199
3.06476
1.90748
1.89571
1.89249
1.89911
1.91326
1.91645
3.09712
1.91571
1.93623
1.91041
1.92107
1.91927
3.11261
3.07419
3.10363
3.07225
1.93664
1.93438
1.95153
3.05817
3.76707
3.76853
1.94465
3.76718
1.92645
3.77418
3.10245
3.10241
4.08122
3.08708
1.87039
3.18988
1.88026
1.89962
1.86057
1.88543
1.8678
1.86361
1.86455
1.85588
1.88148
1.8813
1.87017
1.87019
1.85041
1.88999
1.92467
1.94498
3.0559
1.94377
1.93215
1.93665
3.52396
3.50273
3.39325
3.1905
2.22085
1.92715
1.94315
1.92298
3.37646
3.37843
1.91317
3.21256
1.88613
1.89641
3.22649
3.09557
1.90308
1.88496
3.39284
1.9441
1.96364
1.93172
1.95697
1.9341
1.9447
1.96452
1.95256
1.99277
1.92269
1.9487
1.94783
1.95612
1.93176
1.94144
1.89458
3.09239
2.30812
3.08386
2.31173
1.92256
2.32478
1.91455
1.9321
1.93416
1.88171
1.93536
1.92376
1.91108
1.92931
1.94098
1.9228
2.1851
2.18017
1.92932
1.9201
2.20324
1.92614
3.09438
1.87196
1.92804
1.94422
3.0775
2.08893
3.08171
1.92523
1.91652
2.10502
3.10277
1.95047
2.10628
0.0666257
0.0573643
0.0253243
3.10703
1.92151
1.95627
1.92926
3.08521
0.0692266
0.0677048
1.92595
1.93448
1.88768
1.86118
1.84937
1.86611
1.85826
1.87042
1.87162
1.86462
1.84923
3.07641
0.0537153
3.0854
0.0283528
3.09113
3.18452
1.85963
1.90766
1.89346
1.87676
3.19519
3.11089
3.2133
3.08857
1.89488
3.07441
3.11314
1.88566
1.86211
3.09995
3.1108
4.98673
4.99001
4.97998
1.90508
1.89955
1.88068
1.89372
3.10764
1.88792
3.12159
1.91537
3.12986
1.84356
1.90986
1.90744
3.10699
1.88164
1.87965
1.90611
1.89881
1.85782
1.91083
1.89785
1.91141
1.8959
1.88316
1.94945
3.1486
1.94848
1.91595
1.93695
3.16232
1.9612
3.1525
3.29122
1.95889
3.29649
1.93351
1.94216
3.28312
1.93294
3.27133
3.27248
3.11011
1.90559
1.8738
1.88598
3.10039
1.88746
3.68104
3.12028
1.90486
1.91681
3.12346
3.13014
3.67069
3.09904
3.67074
1.88098
1.89122
2.25124
1.91741
1.91086
3.37982
4.01131
3.17323
3.69884
1.95399
1.96091
1.9461
1.94526
1.93276
1.94162
1.92646
3.06705
3.15987
1.91129
3.16577
3.10467
3.18064
1.92335
3.16061
1.94109
1.93246
3.44489
3.12581
3.12951
1.92823
3.1844
1.91373
1.96345
1.93504
1.91339
1.89106
1.91402
1.90665
1.94784
1.95275
1.99982
3.18847
1.9621
3.37459
3.39616
3.21339
3.44638
3.4488
1.88377
1.81398
1.84812
1.819
1.82591
1.82921
1.86809
1.86028
1.86087
1.84033
3.15341
3.45336
3.45388
3.15821
3.1378
3.17867
1.91579
1.93778
1.86327
1.88707
1.88687
1.93664
1.91843
1.886
1.92855
1.9315
1.8952
1.88796
1.90423
1.91958
1.92053
1.90456
1.84787
1.79475
1.82954
3.46192
1.80329
1.80968
1.8244
1.83345
3.13435
1.75289
3.13798
3.14986
1.78081
3.16233
1.83276
3.05111
1.68914
1.73698
1.67731
1.71176
1.71533
1.71735
1.6907
1.69611
1.62316
1.58692
3.05188
1.58702
1.59076
1.59747
3.06108
3.07219
3.0631
3.20703
1.73549
1.72049
1.7416
3.21547
1.70621
3.23718
1.61293
1.53978
1.57617
3.4848
3.49487
1.59916
1.63235
1.55425
1.6415
1.61647
1.62319
1.58191
1.60313
1.61008
1.6216
1.63387
1.64065
1.63698
1.64009
1.57015
1.61374
1.63254
1.63409
1.61924
1.65648
1.66021
3.21898
1.72518
1.70138
1.6749
1.68284
1.66383
1.67771
1.68417
3.21005
1.72854
1.68871
1.66413
1.66679
1.65474
1.62185
1.69992
1.64743
1.68841
1.70658
1.70288
1.65846
1.65142
1.54087
1.43035
3.06229
1.44566
1.4239
1.45465
1.5305
1.55743
1.79401
1.7079
1.692
1.68422
1.66867
3.06921
1.66625
3.12175
1.58402
1.54311
1.51743
1.57125
1.57369
1.49088
1.50838
1.55603
3.10862
1.59923
1.59287
1.48301
1.56881
1.54648
1.57236
1.59581
1.63682
1.59537
1.57216
1.49849
1.56047
1.58275
1.56181
1.54513
1.62777
1.63666
1.58655
1.68215
1.65124
1.65143
1.63164
1.64169
1.60874
1.62448
1.62137
1.68181
1.6485
1.63112
1.62979
1.61981
1.62489
1.55066
1.60258
1.62191
1.61037
1.60631
1.58834
1.59365
3.21939
1.72617
3.48131
3.49355
0.0445178
0.0647996
0.0210891
0.0585853
3.11387
1.74968
0.0234426
3.58334
3.54956
3.53404
3.54431
3.5821
1.63593
1.58985
1.65335
3.21997
1.62339
1.60357
1.56054
1.60438
1.79719
1.84425
1.85465
1.76663
1.79061
1.80264
1.8369
1.84219
1.86353
1.79987
0.0650551
1.83336
0.0229391
1.81584
0.0930322
1.84635
3.06676
3.1069
3.11743
1.86328
3.12545
0.079152
0.0390873
0.0778433
3.13537
0.000602423
3.15663
0.00324363
3.15275
3.16656
3.13149
3.18612
1.87124
3.13656
1.864
3.06193
1.80256
1.78569
1.79993
1.66925
1.9291
1.94959
1.62915
3.06753
1.62162
1.93242
1.64335
1.91268
3.03791
1.9166
1.896
1.66465
1.93978
3.04724
1.90447
3.06182
3.02172
1.89065
3.09302
2.9595
2.9532
3.40818
1.9062
1.88866
3.15128
3.40126
2.21369
1.84917
2.95898
3.47441
2.96241
3.15182
3.17088
2.97328
2.97665
1.8649
2.93591
2.87423
2.86472
2.87029
1.84152
1.82975
1.8146
1.86592
1.84063
1.84243
1.82488
3.39511
1.84015
1.82837
1.85907
1.80753
1.84255
1.83141
1.81263
1.82726
1.88807
2.8844
1.90085
2.89179
1.88457
2.84437
1.88255
2.88423
2.95404
1.80901
1.81097
1.84191
1.81615
2.94188
1.81344
2.93468
2.94747
1.85278
1.84074
1.82826
1.84249
1.83248
4.99531
4.98508
4.99456
1.83197
4.98637
1.81339
4.99823
4.98433
4.98686
4.99339
1.81567
1.86204
1.86892
1.87484
1.86687
1.83814
1.86151
1.83212
1.81996
1.82491
1.86745
1.8749
1.85642
1.85954
2.93237
1.83426
1.97858
2.95594
1.91463
1.96739
1.95158
1.94076
1.93893
1.96266
3.49387
2.01351
0.0220916
1.96341
0.0180888
1.97953
0.00930949
1.97553
1.99786
1.96731
2.97347
1.94461
1.96009
1.97885
1.97842
1.97118
2.94564
1.89701
1.96258
1.94403
1.93995
1.91197
1.92893
1.91757
2.92159
3.38573
3.05427
1.95268
1.92482
1.9591
3.19794
3.05735
1.97607
1.94463
0.0105298
1.44203
1.47366
1.95934
1.99512
3.46962
3.0814
3.04863
3.94178
1.95929
1.96429
1.93271
3.22115
3.27185
1.48904
1.94113
1.99129
1.41856
1.4546
1.95838
4.95256
1.97307
3.07093
4.97221
1.83282
3.04708
1.82627
4.96297
1.81051
3.03627
1.76633
3.04426
3.0425
3.05226
3.90696
3.25403
3.02911
3.07426
1.77999
1.79833
1.81217
3.06905
3.47632
1.80267
2.47916
1.79472
1.86001
1.88683
1.83276
1.85904
1.86984
1.87128
1.84007
1.8532
1.78392
1.83666
1.83534
1.81754
1.83129
1.82727
1.81922
1.81143
2.47752
2.5001
3.05202
2.15137
2.16087
2.14955
2.17079
2.16577
1.83391
2.74206
1.7823
1.81991
2.74379
2.74919
1.80624
1.82544
3.0179
3.02477
3.23429
1.81164
1.79897
2.72092
1.77107
3.47056
3.22733
3.03783
3.01713
2.86483
2.86717
2.85515
2.83374
3.47652
4.18259
3.04499
3.06611
3.05904
3.0507
4.1803
3.07344
4.18185
3.22336
3.21227
3.18373
3.02519
3.17524
3.02149
2.98878
3.04197
1.85395
1.81273
1.8378
3.00866
3.20807
3.00826
1.83092
1.83506
3.01039
3.48794
3.48384
1.84622
3.50396
3.50216
3.51049
3.50892
3.96478
1.85644
1.88412
1.86964
2.99237
3.51467
3.05579
3.37887
1.86529
1.84235
3.05602
2.99251
3.37592
4.97852
2.98523
3.20902
3.51271
3.00933
4.98409
4.9905
4.98779
4.97405
3.06548
2.78668
3.15754
3.17098
3.17097
3.16869
3.38015
3.54313
3.55541
3.43647
3.43658
3.0336
2.99622
3.06676
3.11339
3.08739
3.05744
3.09706
1.84661
2.989
1.86644
3.43477
1.83104
3.10217
1.8414
3.01148
1.83615
1.81428
3.44288
3.04245
4.80968
3.08309
4.79982
2.96791
3.77748
3.77964
2.97045
1.8481
1.83273
3.07889
3.77248
3.77304
3.77382
1.85742
3.77183
3.02398
4.2795
4.25172
4.27674
4.22485
1.86648
4.23718
1.83823
2.97973
1.85023
1.84859
1.84708
1.83853
3.06587
1.84886
2.95806
3.0607
3.05828
3.0681
2.9604
2.96567
1.8625
1.84381
2.96901
2.96977
1.85701
1.84829
1.88331
1.86624
1.88606
1.92738
2.9825
3.0623
4.32866
2.98349
1.89311
1.8792
1.91597
2.99534
2.95242
1.92705
1.92931
1.94844
1.90836
1.89643
1.94351
1.9714
2.97375
4.30054
2.94851
1.9621
4.55733
1.91379
2.93955
3.5222
2.93953
2.92637
3.50506
3.50387
2.95117
1.93767
2.97258
3.21455
2.93989
1.92394
2.9492
3.23811
1.89656
3.21156
2.94759
1.90767
1.90456
1.89391
2.9406
1.92526
1.89985
1.91872
1.8668
3.25636
1.88513
2.92585
1.87914
3.23787
1.86774
1.09991
1.86531
1.04165
1.87961
2.91988
2.95397
1.09616
2.94384
0.993789
1.86318
1.83705
2.9291
2.94529
1.87433
1.8545
1.84438
1.86464
1.8919
2.9582
1.9109
1.03322
2.93419
1.91581
2.81965
1.8986
2.91648
1.95006
2.94485
2.95688
1.92906
1.96389
1.93531
2.97469
1.89336
2.99534
1.90676
1.91109
2.97513
1.93083
1.89907
1.90802
1.87209
3.00219
1.87557
2.99709
2.99656
1.87748
1.8825
2.9588
1.90543
2.81899
2.93261
1.89972
2.81863
2.81934
1.91403
1.92234
1.87489
2.93322
2.91956
1.87248
1.88328
1.89123
1.86877
1.85877
1.89467
2.82247
1.86237
1.82866
1.85249
1.8327
1.87921
1.87096
3.09448
3.584
3.96334
2.01313
4.02331
4.02093
4.02344
4.02839
3.09119
3.94701
2.9209
1.81739
3.08107
2.9164
3.96096
3.08305
1.86158
1.92175
1.92025
1.86203
1.88252
1.86788
1.88927
1.90472
1.75619
1.7967
3.50029
2.93799
4.97695
1.7735
4.97967
1.68885
1.68782
1.56441
3.49574
1.55519
2.91009
2.93951
3.44245
3.44398
2.98133
1.6413
1.67874
1.61276
1.62425
1.62357
1.65067
1.65458
1.6416
1.52727
1.54985
3.01943
3.44168
3.44756
3.4521
3.13629
1.71539
1.67921
1.66711
1.74063
1.7178
1.71495
1.68523
1.6889
1.74122
1.76599
1.78958
4.04241
4.98894
2.25629
1.76306
1.76495
1.85362
1.87615
1.79562
1.81897
1.81935
1.85563
1.85389
1.82668
1.63357
1.61804
2.25632
1.67557
1.67954
1.64334
1.68675
1.6608
3.01257
2.25959
1.6428
1.67039
2.98971
3.14695
2.92321
2.90992
2.90209
2.89335
1.42126
1.44127
2.89677
2.90895
4.97385
4.98986
1.47463
1.5199
1.5719
1.53009
1.53807
1.48474
1.54247
1.53337
1.58272
2.97659
1.51638
1.53343
1.53345
1.56087
1.54591
1.59961
1.61611
1.5758
1.61881
1.55461
1.55652
1.57984
1.57029
1.58326
1.56638
1.52545
1.54656
1.5933
1.55837
1.54712
1.56967
1.54697
1.55818
1.54323
1.62511
2.99903
1.60233
1.56706
1.56445
1.59322
2.97631
1.61321
1.62496
1.68577
1.65367
1.63691
1.6124
1.63638
1.74122
3.03337
1.76185
1.79843
3.04702
3.0404
1.75392
1.78867
4.95829
1.77468
1.74833
3.05494
1.77522
4.98088
1.75045
3.06724
3.0855
3.09166
2.96848
2.05279
3.05078
2.97136
2.96723
2.87857
3.71015
2.07699
2.03714
3.09717
3.27163
3.27853
3.04221
3.06879
3.06094
2.07354
2.07181
2.05326
2.04142
2.06354
3.07961
3.05195
2.44593
1.98533
3.07617
2.01387
1.99847
1.97914
3.0673
1.99893
2.03905
2.02001
2.44201
3.09131
2.01697
2.02402
2.02374
2.01491
2.03957
3.33841
3.34422
3.31965
3.31729
3.03984
3.04245
2.02936
4.75092
2.04025
2.05014
4.76731
4.85023
4.79913
2.04307
2.0423
4.9066
2.02929
2.06091
2.07683
2.05177
2.04171
2.05822
2.03742
2.093
2.0752
3.02897
4.83521
3.98885
2.05768
3.98925
2.0896
2.12039
2.13834
2.10045
2.12525
2.12987
2.12991
2.11876
2.1197
2.08291
2.0427
2.06221
3.03203
3.04463
3.04304
2.05462
2.06416
2.80482
2.10795
2.10974
2.098
2.1115
2.8334
2.11548
4.18406
2.09228
3.08076
3.07941
2.11857
3.14812
2.10094
3.05767
2.10287
3.0518
3.07266
2.11513
2.12157
3.06181
3.08778
3.09352
3.08105
2.10058
3.09084
2.0701
4.1826
4.18562
2.09125
4.18668
2.09147
2.09724
4.03061
3.03715
3.62562
3.62725
3.60279
3.62166
3.06064
1.99332
3.08703
2.02733
2.00249
3.06563
2.01883
2.00101
3.06794
1.97649
1.95428
1.98418
1.99897
1.98452
1.97154
1.96061
1.96931
1.97939
4.03884
3.17388
1.9917
4.02392
3.15734
1.99914
1.98683
2.03367
3.09427
2.02102
3.06744
3.08145
3.08472
2.03089
2.03842
2.10351
3.40915
2.07614
3.08138
2.09482
3.41191
2.08359
3.38238
3.09962
2.12566
2.12191
2.09821
2.10867
3.09291
3.05999
2.11319
2.11271
2.11066
3.08319
3.40495
2.92145
2.92885
2.10754
2.11048
3.05945
2.27333
3.08666
3.08277
2.27791
2.27253
3.49066
2.05869
2.05206
2.07885
2.0697
2.08558
2.08235
2.07366
2.06832
2.06174
2.07758
3.10714
2.06394
3.10019
3.1121
3.10444
3.07308
3.02933
2.09093
3.08058
3.01381
2.10785
3.03472
3.49635
3.03518
2.26046
2.32581
2.32494
2.33371
3.0405
3.04935
2.29113
2.28886
2.30209
2.06453
3.11059
2.08221
2.99707
3.11551
3.11396
3.11892
3.2565
2.0741
2.30071
2.05327
2.36993
2.37868
2.3824
2.06894
2.06813
2.09915
3.01425
2.10634
2.38849
2.39534
2.39104
3.02777
3.00691
3.01596
3.031
2.0465
2.04652
2.05511
3.04405
3.03406
2.0562
2.0588
2.06206
2.04079
3.22147
4.26387
2.5231
2.04174
2.0543
2.03683
2.03258
3.00557
2.01996
2.02805
2.03444
2.05909
2.03947
2.02026
2.52884
2.00741
2.53011
4.03016
4.01895
2.0105
1.99941
2.06186
2.58241
2.56628
2.03411
2.04282
2.06212
2.58646
2.56774
2.06651
2.07652
2.0533
2.04263
2.05239
2.07008
2.0513
2.06498
2.57834
2.03216
2.96935
1.98931
2.02377
2.03645
2.97326
2.99183
2.99002
1.98164
2.02901
2.0022
2.01369
1.97464
2.00904
1.99479
2.63216
2.01419
2.63621
3.0493
2.65076
3.73458
3.73771
3.73333
3.7383
3.73573
3.26275
2.03334
3.75315
3.75479
3.08644
3.75275
3.71014
1.98922
3.71132
2.03749
2.97031
3.24695
3.71631
3.71515
2.97744
3.71041
3.71077
2.03289
3.09246
4.98767
2.9805
3.0048
3.00022
4.97566
3.26573
1.82111
3.23607
3.76397
3.77392
3.76672
1.87592
1.90766
1.87077
1.90318
1.86503
1.88271
1.88953
1.88122
1.80498
1.74707
1.77277
1.80265
1.76915
1.78975
1.78602
1.75317
4.98607
4.97615
4.98732
1.87066
1.88745
3.77939
2.82221
2.82488
1.76619
3.0454
1.76492
3.04624
1.75253
3.03109
2.98609
1.75002
1.76894
1.80412
1.80876
1.74704
1.7932
1.79977
1.81345
1.79547
1.86117
1.8303
1.80955
3.05272
1.83391
3.01281
3.0522
1.8283
1.90328
1.9261
1.92357
1.86746
1.89703
1.90935
1.93482
1.91744
1.91473
1.8968
1.87949
1.86655
1.8978
2.96796
3.07541
3.02319
3.03113
2.82801
1.80769
3.03048
3.76888
3.78594
3.03576
4.78179
4.79807
3.0274
3.04208
1.8197
3.09538
1.86549
4.77986
4.81539
4.80556
3.10278
1.87323
1.81868
1.78882
4.65587
1.88744
4.67522
3.11463
2.99771
1.90594
1.87565
3.09031
3.01188
3.08651
1.85107
1.88509
1.84625
1.91089
3.11175
1.87362
1.85528
1.89548
1.86264
1.59295
4.67215
1.66707
1.65465
4.64054
4.65528
1.62856
1.63279
2.95931
1.38683
1.47719
3.03116
1.50738
3.07112
3.08552
1.46651
1.54322
2.8737
1.61636
1.61269
2.8717
2.87834
1.59751
1.57267
1.6889
2.8781
3.00747
2.84584
2.84897
1.71248
2.85103
1.6542
1.57217
3.0236
3.00108
3.02498
3.0302
1.5827
1.62782
3.49659
1.56731
3.03699
3.02921
3.05742
3.04304
3.05035
3.50635
3.06905
1.63095
4.03711
1.52471
1.63978
1.61945
1.61308
1.61264
1.66853
1.56765
1.62437
1.54573
1.60706
1.64153
3.11051
1.58045
1.58849
3.08919
4.0644
1.73338
4.06681
4.04768
3.929
3.09426
3.08193
1.6735
3.92346
1.64462
3.04837
3.93336
3.95075
3.95266
1.65429
3.93536
3.73296
1.69429
3.80486
3.79456
3.81363
3.80339
3.74227
3.73951
1.69012
1.74503
3.74167
1.72715
3.73941
1.7407
3.73703
1.72322
3.72675
1.70936
3.069
3.08125
3.72425
3.7038
3.71456
1.7693
1.72927
1.76024
3.72126
1.7677
1.76356
1.70827
1.74088
1.74529
3.75486
3.10473
2.92093
3.7546
3.75276
1.7936
3.08141
1.87393
3.05714
3.71622
1.88561
1.86866
1.89137
3.7541
4.39687
1.79881
4.41005
1.86963
1.8294
1.82593
1.84699
1.84159
1.82066
4.39561
4.42277
1.90212
1.90167
1.90251
4.41549
1.86172
4.50407
2.02165
1.99923
2.03823
3.01278
3.07738
1.98897
2.02116
2.03641
2.05089
2.07301
3.06016
2.08222
2.07168
2.06353
3.00453
3.09124
2.00953
1.97685
3.12143
2.02483
4.49206
2.00745
4.28433
2.98983
2.06728
2.09477
2.08392
2.06535
2.07324
2.0867
2.08528
2.0703
4.31228
2.05031
2.04786
2.07302
2.06051
2.05101
4.31027
4.28288
4.29759
2.05146
2.05329
2.076
2.06496
3.07582
4.98992
4.97129
2.05147
2.03303
2.02548
3.96044
3.11784
2.02956
2.02817
2.95647
2.02947
2.048
4.98645
2.94491
2.01312
2.03073
4.97071
4.98575
1.94619
3.74698
1.9592
1.99189
3.74838
3.73533
1.96727
1.96069
1.92896
1.91045
1.961
3.73755
3.7038
3.73006
1.94501
1.93263
1.99533
2.02571
2.01587
1.98987
2.01174
2.0252
2.01028
2.01657
2.95462
3.73058
3.7316
3.95194
3.85936
3.73006
1.94596
4.11494
4.12341
2.94424
2.99371
3.85658
1.96783
1.95654
3.73336
3.69052
3.70308
3.00365
1.93308
3.73572
1.93325
3.71729
1.94191
3.64052
1.97271
2.98392
1.99424
3.59347
3.60761
3.64283
1.98628
2.9945
1.9495
1.94894
1.97893
2.0006
1.98477
1.96225
1.97734
1.95927
2.10097
2.06747
2.06311
2.08551
2.07609
2.0818
2.0797
2.08314
2.13349
2.13814
2.13381
3.62197
3.54267
3.50615
2.13156
2.14001
3.50437
3.02531
2.068
3.54758
2.0743
2.08876
3.51866
2.87596
2.89346
2.06101
2.12276
2.92785
2.09634
2.92777
2.10969
2.91025
2.06842
2.74695
2.11271
2.09459
2.74599
3.0123
2.09662
2.08463
2.10316
2.0853
2.12876
2.09523
2.10141
2.09554
2.1204
2.12133
1.96023
1.96754
2.00421
2.97392
1.978
1.94571
1.98514
1.97524
1.94345
2.75897
1.96601
2.77265
2.77461
2.75972
1.96544
1.94357
1.94327
2.59824
1.92128
1.96771
1.97031
1.95162
1.93279
1.94924
3.70987
2.6086
2.59404
2.61343
2.60825
4.34926
4.33582
3.61201
1.98121
3.07636
3.62266
3.34871
4.5586
3.61289
3.00243
3.86118
1.96546
1.99517
1.96219
4.47446
4.46023
3.58866
1.97622
1.97577
1.99848
3.58345
1.95921
1.96726
1.9767
3.85997
1.97461
1.9831
1.95995
1.98004
1.95412
1.9649
1.97255
1.99723
1.95574
1.96488
2.0318
3.57634
1.98983
3.59572
3.58321
3.58791
2.00698
2.02447
2.03192
3.67571
2.01707
3.66912
3.67089
3.69263
2.0217
2.02269
3.67649
1.98017
3.68062
3.01791
3.06837
1.99381
3.0775
3.07452
1.96638
3.10917
1.97493
3.07799
3.09266
1.94686
3.27797
1.96271
2.00767
3.2673
3.61427
3.2746
3.3201
3.29286
3.62419
1.9902
2.01283
1.98668
2.02491
1.92909
3.62607
3.62063
3.64157
3.61654
1.97898
1.97945
1.9426
3.34881
1.67706
3.00291
3.02181
1.98885
2.01533
1.96831
3.02665
1.7863
2.00618
2.00556
2.01562
2.0189
1.80592
2.43346
1.99195
2.01631
2.01568
2.43199
1.99472
2.42563
2.39442
1.98961
3.02224
2.99444
1.98715
2.4193
2.99892
2.41358
1.97896
2.29653
2.00069
1.96468
2.31343
2.2982
1.98354
1.97759
3.00094
2.31896
1.931
3.02538
1.93286
1.91623
1.93107
1.94346
3.12507
3.12388
3.02062
1.95571
1.95153
1.95262
3.01997
3.08016
2.35705
2.33621
2.97858
2.98136
1.9885
3.25332
4.14118
4.14817
2.99478
1.95471
1.99024
2.99536
4.16191
2.97984
1.97934
1.97712
2.96456
4.0995
3.24009
2.98879
2.96988
3.04192
3.00245
3.79931
2.01666
3.79578
2.03462
2.01481
3.83291
3.84099
2.02714
2.0158
2.04935
2.04872
2.02092
2.06982
2.06034
2.04897
2.03608
2.0531
2.98861
2.07621
2.05102
2.07293
2.06491
2.06713
2.99155
3.75936
3.75926
2.05057
2.02871
2.05854
2.05011
3.76079
2.02801
1.43527
1.28604
2.06379
2.04782
2.02889
2.05037
1.23587
2.05045
1.17465
2.03314
3.73557
2.03711
2.01397
2.03025
2.0338
2.02738
2.03846
1.99984
1.98588
2.03703
2.04167
2.03696
1.99505
2.02392
2.01075
1.20347
2.97522
3.41019
2.02687
2.97354
3.39098
2.0139
3.3828
2.01567
2.04626
2.03459
2.06953
2.04839
2.03735
2.03631
2.05182
2.96866
2.0984
2.05912
2.08149
2.07924
2.96976
2.06814
2.97436
3.36517
2.06595
2.06351
3.35951
3.35692
3.37212
2.05817
3.36345
3.36225
2.03961
1.99765
2.03575
2.03111
2.04439
2.0117
2.03253
2.06361
2.07389
3.45568
3.4469
3.46276
3.44549
3.45389
3.49488
2.00651
2.03513
3.50186
3.5174
3.49236
2.04548
3.50748
2.01644
2.94688
2.96947
2.96056
2.96646
2.96869
2.96373
2.96005
2.9571
2.92436
2.90133
2.92379
2.91691
2.91296
2.91234
2.92267
2.91809
2.95504
2.94481
3.35441
2.98415
2.33854
2.94127
2.98513
2.94704
2.93998
3.72485
2.95478
3.00586
2.93883
2.24124
2.94416
0.0265135
2.9371
2.95482
2.93451
2.95577
2.94098
2.94291
2.93378
2.93992
2.94065
2.93436
0.0606983
2.96042
0.0342314