
/*--------------------------------*- C++ -*----------------------------------*\
| =========                 |                                                 |
| \\      /  F ield         | OpenFOAM: The Open Source CFD Toolbox           |
|  \\    /   O peration     | Version:  5.0                                   |
|   \\  /    A nd           | Web:      www.OpenFOAM.org                      |
|    \\/     M anipulation  |                                                 |
\*---------------------------------------------------------------------------*/
FoamFile
{
    version     2.0;
    format      ascii;
    class       volVectorField;
    location    "1.5";
    object      wallShearStress;
}
// * * * * * * * * * * * * * * * * * * * * * * * * * * * * * * * * * * * * * //

dimensions      [0 2 -2 0 0 0 0];

internalField   uniform (0 0 0);

boundaryField
{
    septal
    {
        type            calculated;
        value           nonuniform List<vector> 
7808
(
(-7.43471e-06 3.63344e-06 -1.65467e-06)
(-9.45077e-06 6.00271e-07 -6.56395e-07)
(-8.41247e-06 2.00983e-07 1.9301e-06)
(-6.92525e-06 7.82428e-07 2.11353e-07)
(-5.31846e-06 -2.50016e-06 -6.95475e-07)
(-9.45044e-06 8.37103e-07 2.51621e-07)
(-9.58917e-06 3.77041e-07 -1.10091e-06)
(-8.72748e-06 3.7662e-07 -5.08768e-07)
(-7.59361e-06 -1.6872e-06 -1.89189e-07)
(-8.15444e-06 3.63334e-06 -2.56766e-07)
(-8.19497e-06 -7.19298e-07 2.1376e-06)
(-8.11031e-06 1.40279e-06 -2.16698e-06)
(-7.35187e-06 8.34752e-07 1.38391e-06)
(-7.33619e-06 -5.86947e-07 4.43793e-07)
(-8.14777e-06 -1.38499e-07 1.24404e-07)
(-8.37437e-06 -1.7786e-06 1.57348e-06)
(-8.62259e-06 -7.84456e-07 3.17522e-07)
(-1.1934e-05 -2.37826e-07 -2.20922e-06)
(-9.05024e-06 2.3414e-06 -9.97659e-07)
(-9.36575e-06 3.77235e-06 -3.32517e-07)
(-8.97446e-06 1.41879e-06 5.26374e-07)
(-7.54545e-06 1.46882e-07 3.43658e-07)
(-8.2385e-06 -6.50784e-07 -1.29743e-06)
(-6.58421e-06 -1.72511e-06 4.03926e-07)
(-5.00487e-06 -1.75372e-06 -1.92955e-07)
(-5.30723e-06 -1.86733e-06 -6.03677e-07)
(-9.31228e-06 1.26083e-06 5.72979e-07)
(-7.85102e-06 1.08853e-06 2.79236e-08)
(-9.22455e-06 2.0596e-06 1.15214e-06)
(-6.96396e-06 1.0033e-06 -1.66497e-06)
(-6.00678e-06 2.92287e-07 -3.07184e-07)
(-6.72285e-06 -1.35727e-06 3.00217e-07)
(-9.3161e-06 -4.47911e-07 -1.05416e-06)
(-8.92145e-06 1.33834e-06 5.05171e-07)
(-7.11308e-06 -4.39478e-07 -1.51486e-06)
(-6.01079e-06 1.69525e-06 2.77323e-07)
(-6.09389e-06 2.89192e-07 1.37843e-07)
(-7.25653e-06 1.11782e-06 1.49076e-06)
(-5.95961e-06 1.49746e-06 -1.54601e-08)
(-7.70181e-06 5.1222e-07 3.8181e-07)
(-7.87579e-06 3.34103e-06 -1.22479e-06)
(-8.12085e-06 5.75956e-07 1.52277e-06)
(-6.65286e-06 -3.1292e-07 1.82451e-07)
(-7.95145e-06 1.64257e-06 7.86887e-07)
(-5.08015e-06 2.13155e-08 1.98043e-07)
(-2.11801e-05 -6.90098e-06 1.14163e-05)
(-5.29838e-06 -1.37455e-06 -8.87807e-07)
(-7.70646e-06 -2.08372e-06 5.30815e-07)
(-1.14045e-05 8.23776e-06 -2.66213e-05)
(1.53293e-07 7.24767e-07 6.46074e-06)
(-8.97166e-07 -1.112e-06 6.83918e-06)
(-4.09151e-06 -1.17454e-07 2.52004e-06)
(4.8274e-07 1.04565e-06 -1.44947e-05)
(1.67871e-06 -2.12398e-05 -6.03016e-05)
(-7.61104e-06 -4.45742e-05 -6.62712e-05)
(-7.57317e-06 7.17658e-07 -9.90189e-07)
(-2.19163e-06 2.4312e-06 -5.2395e-06)
(-3.90431e-07 -3.11797e-07 3.05241e-06)
(-3.09092e-06 -8.7011e-07 2.32498e-06)
(4.92255e-07 2.4267e-07 5.90749e-06)
(-2.16573e-05 2.97714e-06 3.01924e-06)
(-2.02025e-05 5.88216e-06 -1.0518e-06)
(-3.81402e-06 1.29246e-06 -1.75149e-06)
(-1.72963e-06 7.05157e-07 4.38485e-06)
(-3.01137e-06 1.80595e-06 5.05339e-06)
(-2.43136e-06 2.90739e-07 6.5645e-06)
(-2.18807e-06 3.48835e-08 6.55914e-06)
(-3.32438e-06 -2.95264e-07 6.09021e-06)
(-3.96713e-06 -6.9432e-07 1.49514e-06)
(-3.21822e-06 9.10576e-07 1.39901e-06)
(-5.40214e-06 4.95774e-07 2.31298e-06)
(-5.20168e-06 6.80048e-07 1.47601e-06)
(-1.86239e-06 2.96665e-07 3.99715e-06)
(-2.86416e-06 7.07333e-07 6.2292e-06)
(-3.23061e-06 -1.09401e-06 6.29374e-06)
(-1.65309e-06 -8.70503e-07 3.64242e-06)
(-1.78416e-06 -1.53578e-06 3.66214e-06)
(-1.48851e-06 3.24977e-08 5.16003e-06)
(-1.71863e-06 -9.80794e-07 4.99441e-06)
(-5.7e-06 -5.83864e-07 1.10332e-06)
(-2.22142e-06 -6.04667e-07 -1.96785e-06)
(-1.41423e-05 3.68437e-06 -9.59295e-06)
(-1.12394e-05 3.09253e-06 -8.20562e-06)
(-1.26503e-05 3.00694e-06 -4.87416e-06)
(-1.01088e-05 2.29093e-06 -8.49146e-06)
(-1.26108e-05 5.1464e-06 -6.33061e-06)
(-9.36285e-06 3.9816e-06 -2.78908e-06)
(-5.38752e-06 -1.13874e-06 -3.61736e-06)
(-5.35365e-06 1.48136e-06 -3.07869e-06)
(-5.21791e-06 -2.30308e-06 -5.22474e-06)
(-8.72256e-06 -2.10101e-07 -5.06197e-06)
(-7.5098e-06 -1.40673e-07 -3.77116e-06)
(-8.17691e-06 -7.23538e-07 -5.69539e-06)
(-8.54182e-06 3.38947e-06 -6.98844e-06)
(-8.74456e-06 1.4577e-06 -4.85457e-06)
(-7.07171e-06 -2.21282e-07 -3.98277e-06)
(-9.43562e-06 -1.18731e-06 -3.80056e-06)
(-9.33482e-06 1.45625e-07 -9.37057e-06)
(-9.28008e-06 5.77353e-06 -3.4953e-06)
(-1.41586e-05 -2.15488e-06 -1.00637e-05)
(-6.8364e-06 -7.19403e-07 -7.34048e-06)
(-1.30372e-05 4.38088e-06 -7.06524e-06)
(-1.76375e-05 1.4723e-06 -1.11747e-05)
(-1.84873e-05 1.617e-06 -1.27946e-05)
(-1.03835e-05 7.86319e-07 -8.67563e-06)
(-1.68568e-05 3.50261e-06 -7.94454e-06)
(-8.68088e-06 -3.91643e-07 -5.13816e-06)
(-8.68067e-06 -1.45502e-06 -5.78004e-06)
(-8.80352e-06 4.4761e-06 -4.82455e-06)
(-1.46801e-05 2.38585e-07 -8.58771e-06)
(-1.05466e-05 -2.50181e-06 -6.72906e-06)
(-1.44734e-05 4.1077e-06 -9.44501e-06)
(-9.59967e-06 2.97737e-06 -6.29781e-06)
(-6.86839e-06 2.02349e-07 -4.94029e-06)
(-7.88884e-06 2.89405e-08 -5.63344e-06)
(-5.75631e-06 2.96956e-07 -6.46371e-06)
(-4.8629e-06 -3.7505e-07 -3.88971e-06)
(-5.83529e-06 -3.69757e-07 -5.00673e-06)
(-3.70395e-06 5.30795e-07 -2.76579e-06)
(-4.60258e-06 -4.21629e-07 -3.51532e-06)
(-6.56104e-06 6.30644e-07 -4.93023e-06)
(-7.14894e-06 -1.26211e-06 -4.52482e-06)
(-4.97792e-06 -8.52472e-07 -4.76152e-06)
(-7.73482e-06 4.75268e-07 -7.46361e-06)
(-1.3293e-05 -2.14784e-06 -3.57178e-06)
(-8.23534e-06 5.12405e-06 -7.31716e-06)
(-7.51009e-06 3.09186e-06 -6.22422e-06)
(-1.50921e-05 6.14715e-06 -1.06136e-05)
(-1.1236e-05 3.8631e-06 -7.82404e-06)
(-7.91841e-06 2.86788e-06 -4.12477e-06)
(-7.86842e-06 -1.27484e-06 -4.79787e-06)
(-8.21204e-06 2.74295e-06 -6.90278e-06)
(-6.19216e-06 -5.43966e-07 -6.22977e-06)
(-4.87466e-06 2.79315e-06 -4.20802e-06)
(-1.09284e-05 9.84116e-07 -4.39209e-06)
(-9.98031e-06 -9.37762e-07 -7.25401e-06)
(-1.63146e-05 8.73551e-07 -7.1155e-06)
(-8.59813e-06 1.94391e-06 -7.13099e-06)
(-1.35761e-05 -1.49393e-06 -8.5844e-06)
(-2.69959e-06 -4.27594e-07 -1.56574e-06)
(-4.88504e-06 1.73186e-06 -1.19011e-06)
(-5.28388e-06 -5.9603e-07 -1.89654e-06)
(-3.12411e-06 -5.95303e-07 -6.46757e-07)
(-3.2296e-06 1.67853e-07 -1.06263e-06)
(-2.95333e-06 -1.4981e-07 -1.03919e-06)
(-4.29885e-06 6.75384e-07 -1.23006e-06)
(-2.75216e-06 3.65673e-07 -1.06441e-06)
(-3.44601e-06 -5.06357e-07 -1.2225e-06)
(-4.45244e-06 8.02719e-08 -2.02756e-06)
(-4.57676e-06 2.01866e-06 -1.3444e-06)
(-4.87981e-06 4.46364e-07 -1.34972e-06)
(-4.99075e-06 5.98972e-07 -2.62314e-06)
(-4.37603e-06 -1.12428e-06 -1.09063e-06)
(-3.14984e-06 2.35218e-07 -1.30784e-06)
(-4.80857e-06 1.04072e-06 -1.13571e-06)
(-3.91777e-06 5.1285e-07 -9.0055e-07)
(-5.12579e-06 7.24912e-07 -1.67933e-06)
(-3.06744e-06 6.2498e-07 -6.0874e-07)
(-3.3278e-06 4.41756e-07 -9.67613e-07)
(-5.10494e-06 -3.64934e-07 -1.87567e-06)
(-3.79877e-06 3.35232e-06 -1.69566e-06)
(-5.41591e-06 1.4894e-06 -2.22128e-07)
(-6.02789e-06 7.70725e-07 -2.15725e-06)
(-4.3695e-06 1.76489e-06 -1.5846e-06)
(-5.73397e-06 2.25841e-06 -1.63592e-06)
(-3.20893e-06 1.65963e-06 -1.22258e-06)
(-4.38512e-06 2.04711e-07 -8.54818e-07)
(-3.72532e-06 -3.23285e-07 -1.62249e-06)
(-1.60997e-06 1.10715e-06 -1.273e-06)
(-3.02936e-06 1.84166e-07 -7.28754e-07)
(-3.19134e-06 -1.2343e-06 -1.04966e-06)
(-4.3736e-06 1.39733e-06 -1.84649e-06)
(-4.75445e-06 -3.55836e-07 -2.24977e-06)
(-4.37011e-06 1.53995e-06 -1.47345e-06)
(-3.34206e-06 -2.66554e-07 -1.9077e-06)
(-6.01108e-06 1.643e-06 -2.18635e-06)
(-3.15333e-06 6.78582e-07 -1.8731e-06)
(-4.47106e-06 8.92864e-07 -2.02963e-06)
(-5.23979e-06 -9.67726e-07 -2.18352e-06)
(-4.91184e-06 -1.61671e-06 -2.21748e-06)
(-3.97125e-06 1.23095e-06 -1.3691e-06)
(-4.73273e-06 1.439e-07 -1.75747e-06)
(-5.44643e-06 -8.64626e-08 -2.2768e-06)
(-4.57841e-06 -4.13288e-07 -2.36408e-06)
(-3.25272e-06 1.13885e-06 -9.94899e-07)
(-4.11312e-06 -1.23693e-07 -1.78003e-06)
(-2.69246e-06 2.53837e-07 -1.12726e-06)
(-3.71884e-06 3.99088e-07 -1.2153e-06)
(-3.32872e-06 -5.01681e-07 -1.66116e-06)
(-6.45582e-06 4.02477e-07 -3.22917e-06)
(-4.03709e-06 1.18591e-06 -8.9101e-07)
(-6.35239e-06 5.54491e-07 -2.92004e-06)
(-5.6668e-06 2.53666e-06 -1.82173e-06)
(-4.07458e-06 -1.32244e-06 -7.74384e-07)
(-3.98093e-06 1.785e-06 -2.36441e-06)
(-5.59646e-06 8.70363e-07 -1.67015e-06)
(-2.75029e-06 9.65525e-07 -8.68587e-07)
(-4.70368e-06 -1.46554e-06 -1.98279e-06)
(-5.01623e-06 -1.29886e-06 -1.76405e-06)
(-2.84089e-06 8.97502e-07 -1.20762e-06)
(-4.05883e-06 6.88763e-07 -9.89765e-07)
(-3.64222e-06 6.91121e-07 5.02511e-06)
(-3.69215e-06 -6.58455e-07 2.21945e-06)
(-3.0114e-06 -1.90882e-06 4.1718e-06)
(-4.89172e-06 4.2187e-07 4.82799e-06)
(-5.3542e-06 -5.73509e-07 3.53301e-06)
(-6.1482e-06 1.54411e-06 2.78056e-06)
(-5.60972e-06 -2.31847e-07 5.14185e-06)
(-5.16386e-06 6.52619e-07 3.82974e-06)
(-3.58852e-06 -9.9164e-07 2.8031e-06)
(-4.64248e-06 1.34003e-07 3.23385e-06)
(-3.84803e-06 6.69115e-07 4.20452e-06)
(-3.44279e-06 1.47228e-06 3.01662e-06)
(-5.05026e-06 -1.2228e-06 5.43643e-06)
(-4.15253e-06 -4.25819e-06 5.94139e-06)
(-4.29028e-06 -2.00056e-06 5.77703e-06)
(-7.21817e-06 4.19015e-07 4.64526e-06)
(-4.77952e-06 -1.25515e-06 5.02871e-06)
(-6.35368e-06 -4.57238e-06 4.70559e-06)
(-4.4498e-06 -1.02993e-07 2.7314e-06)
(-4.80299e-06 8.21176e-07 4.56555e-06)
(-3.60534e-06 -8.28418e-07 5.20509e-06)
(-3.70051e-06 1.0569e-06 4.92654e-06)
(-4.11384e-06 7.10673e-07 3.39799e-06)
(-2.76137e-06 -8.20607e-07 5.24337e-06)
(-6.61667e-06 -1.12871e-06 6.04605e-06)
(-5.90209e-06 -4.67146e-07 3.87277e-06)
(-5.09569e-06 1.81329e-06 3.8584e-06)
(-5.04664e-06 1.20599e-06 3.42563e-06)
(-6.19984e-06 -1.91896e-06 3.61821e-06)
(-6.1145e-06 -1.54958e-06 4.24002e-06)
(-5.29969e-06 -1.57801e-06 3.39892e-06)
(-5.23493e-06 -1.62515e-06 2.03382e-06)
(-5.84777e-06 1.26718e-06 3.65914e-06)
(-4.25564e-06 4.134e-07 4.46205e-06)
(-5.41924e-06 -1.87988e-07 5.44076e-06)
(-4.76736e-06 2.48246e-06 3.49772e-06)
(-5.63358e-06 -3.76127e-07 3.87194e-06)
(-6.8093e-06 -1.91378e-06 5.74036e-06)
(-3.02634e-06 2.61426e-06 1.73405e-06)
(-6.76459e-06 -1.21551e-06 5.9202e-06)
(-4.94234e-06 1.3009e-06 2.92153e-06)
(-5.69865e-06 -9.27102e-07 6.03e-06)
(-1.71711e-06 -2.59815e-07 3.57097e-06)
(-6.06664e-07 -2.84654e-07 4.69159e-06)
(-1.6569e-06 -6.52839e-07 4.37564e-06)
(-2.35401e-06 -2.27423e-07 5.3025e-06)
(-2.9693e-06 -2.14844e-06 2.99166e-06)
(-3.14761e-06 7.78609e-07 3.09024e-06)
(-1.90229e-05 3.18519e-06 1.11687e-05)
(-2.06416e-05 7.11726e-06 2.61411e-06)
(-1.71046e-05 -1.10506e-07 2.3959e-06)
(-1.83241e-05 3.42828e-06 4.93002e-06)
(-1.91887e-05 6.19433e-06 -1.60291e-06)
(-2.4052e-05 3.8697e-06 8.78701e-06)
(-1.29485e-05 8.27381e-06 -1.80897e-08)
(-3.67642e-06 6.92e-07 -1.4913e-06)
(-4.46776e-06 4.82139e-07 -1.59691e-06)
(-3.79839e-06 1.16861e-06 -1.08696e-06)
(-4.73509e-06 -2.37363e-08 -1.28362e-06)
(-2.42581e-06 1.4513e-06 -9.10026e-07)
(-3.41194e-06 2.48337e-06 -1.42711e-06)
(-3.31096e-06 1.45911e-06 -1.74081e-06)
(-4.95103e-06 4.87204e-07 -1.88947e-06)
(-4.64936e-06 1.13795e-06 -8.07099e-07)
(-4.00019e-06 8.40533e-07 -1.26493e-06)
(-4.62551e-06 -6.71388e-07 -1.70152e-06)
(-5.32666e-06 1.2139e-07 -2.20251e-06)
(-4.24141e-06 -7.70447e-08 -1.71222e-06)
(-6.4514e-06 7.18692e-07 -1.93928e-06)
(-4.16996e-06 1.62485e-06 -1.13781e-06)
(-6.65512e-06 5.68396e-07 -2.75208e-06)
(-6.33544e-06 1.04114e-06 -1.698e-06)
(-5.10279e-06 2.72291e-06 -2.62631e-06)
(-3.29328e-06 1.87332e-06 -1.95683e-06)
(-3.16428e-06 -2.7363e-08 -1.89971e-06)
(-3.23169e-06 2.12812e-06 -2.67972e-06)
(-4.62726e-06 -4.44864e-07 -1.90845e-06)
(-2.01009e-06 1.66217e-06 -8.83294e-07)
(-2.85814e-06 2.5342e-07 -1.74559e-06)
(-2.9625e-06 3.04978e-09 -1.67202e-06)
(-2.89819e-06 -3.56784e-07 -1.73738e-06)
(-3.08615e-06 9.26925e-07 -8.25355e-07)
(-4.17773e-06 7.51686e-07 -1.93984e-06)
(-3.17268e-06 4.56875e-08 -2.52778e-06)
(-4.77793e-06 2.29863e-06 -3.00712e-06)
(-2.76487e-06 1.52239e-06 -2.43658e-06)
(-2.47393e-06 2.7225e-07 -1.56185e-06)
(-3.09386e-06 2.04184e-06 -1.53784e-06)
(-4.24079e-06 4.47655e-07 -2.50153e-06)
(-2.85685e-06 3.19179e-07 -1.29267e-06)
(-3.85866e-06 6.37164e-07 -1.81504e-06)
(-2.51529e-06 1.04794e-06 -1.99615e-06)
(-3.82957e-06 7.6159e-07 -1.82951e-06)
(-4.57348e-06 9.69419e-07 -2.32005e-06)
(-3.27013e-06 1.63726e-06 -3.22022e-06)
(-2.64365e-06 9.68294e-07 -1.76815e-06)
(-6.08196e-06 4.0139e-07 -2.80004e-06)
(-4.74358e-06 1.35706e-07 -2.38825e-06)
(-2.45605e-06 1.67367e-06 -1.29251e-06)
(-5.07041e-06 1.11589e-06 -2.56288e-06)
(-3.31166e-06 8.03839e-07 -1.6982e-06)
(-3.94881e-06 4.66627e-07 -2.56654e-06)
(-4.74847e-06 4.75009e-07 -2.21283e-06)
(-4.51661e-06 7.2055e-07 -1.86562e-06)
(-3.75414e-06 5.39292e-07 -2.00325e-06)
(-5.61202e-06 5.07531e-07 -2.67444e-06)
(-4.94058e-06 -4.7555e-07 -2.31991e-06)
(-5.25911e-06 3.42743e-06 -2.64144e-06)
(-4.2441e-06 1.93864e-06 -1.504e-06)
(-5.20015e-06 -8.31171e-07 -2.45914e-06)
(-4.60167e-06 5.89577e-07 -1.79346e-06)
(-4.87776e-06 3.32101e-06 -2.23431e-06)
(-6.34961e-06 8.96574e-07 -1.79647e-06)
(-7.09483e-06 3.11324e-07 -2.67462e-06)
(-5.09486e-06 -1.15346e-06 -2.36254e-06)
(-3.51824e-06 1.37494e-06 -1.29689e-06)
(-2.88787e-06 1.07233e-06 -1.80297e-06)
(-2.62145e-06 1.42299e-06 -2.4446e-06)
(-7.06496e-06 -6.21561e-07 -8.41725e-06)
(-6.77984e-06 9.73601e-07 -1.10458e-05)
(-3.94235e-06 -8.45546e-08 -4.80374e-06)
(-7.5704e-06 9.3721e-07 -7.95014e-06)
(-5.76473e-06 5.94018e-07 -7.68173e-06)
(-5.10727e-06 1.96249e-07 -6.00252e-06)
(-4.26016e-06 -4.00905e-07 -4.67404e-06)
(-4.17272e-06 6.73637e-07 -5.13413e-06)
(-4.0554e-06 2.30364e-06 -8.18341e-06)
(-7.94711e-06 5.18762e-06 -6.84188e-06)
(-6.4322e-06 7.45011e-07 -7.70473e-06)
(-5.39964e-06 3.58763e-08 -1.03604e-05)
(-3.9035e-06 -8.27063e-07 -8.67408e-06)
(-4.9632e-06 8.66795e-07 -5.83764e-06)
(-5.31637e-06 -1.48862e-06 -7.60264e-06)
(-8.13901e-07 1.35737e-06 -1.08908e-05)
(-3.24893e-06 -1.32679e-06 -7.22944e-06)
(-3.74119e-06 -1.48841e-06 -3.86294e-06)
(-3.83891e-06 -2.25738e-07 -5.46373e-06)
(-3.16612e-06 1.58256e-06 -7.7333e-06)
(-5.23466e-06 3.06587e-07 -7.52597e-06)
(-4.29181e-06 -3.71363e-06 -6.96253e-06)
(-3.94758e-06 2.43439e-07 -5.02569e-06)
(-4.14772e-06 1.34618e-06 -8.29344e-06)
(-2.63093e-06 1.23346e-06 -5.86251e-06)
(-4.5126e-06 4.15759e-07 -3.88777e-06)
(-7.31566e-06 3.75665e-06 -6.65044e-06)
(-6.18762e-06 -1.13265e-06 -6.50354e-06)
(-4.92356e-06 -3.61755e-08 -7.40287e-06)
(-3.65427e-06 1.06938e-06 -2.3156e-06)
(-6.39839e-06 1.4922e-06 -7.64345e-06)
(-5.08765e-06 5.63305e-06 -5.84235e-06)
(-5.54237e-06 -1.59967e-06 -4.45389e-06)
(-5.18401e-06 -4.74276e-07 -6.57224e-06)
(-5.37886e-06 8.43303e-07 -5.22088e-06)
(-7.65506e-06 1.19066e-07 -6.72562e-06)
(-6.38413e-06 -6.72898e-07 -6.78432e-06)
(-3.76812e-06 1.11579e-06 -3.88432e-06)
(-4.06796e-06 -1.35633e-06 -6.56915e-06)
(-3.20879e-06 1.04275e-06 -6.6557e-06)
(-6.75778e-06 7.83144e-07 -3.53077e-07)
(-4.01363e-06 1.6069e-06 -7.72201e-06)
(-5.49753e-06 4.99728e-06 -6.49316e-06)
(-4.51622e-06 -3.46406e-07 -5.52891e-06)
(-4.54339e-06 2.60033e-06 -6.25511e-06)
(-4.1254e-06 6.78951e-07 -4.53877e-06)
(-4.37394e-06 2.06117e-06 -4.81794e-06)
(-5.61496e-06 2.55642e-06 -5.91879e-06)
(-5.24499e-06 8.78407e-07 -4.89283e-06)
(-5.67588e-06 5.04831e-06 -7.67632e-06)
(-8.53926e-06 2.39129e-06 -9.26175e-06)
(-2.95823e-06 9.37117e-07 -5.01801e-06)
(-5.12588e-06 -2.08919e-06 -5.29279e-06)
(-5.44075e-06 -1.97665e-06 -9.34407e-06)
(-6.09295e-06 1.76378e-06 -7.60201e-06)
(-4.95189e-06 -2.3457e-06 -1.02499e-06)
(-2.54613e-06 1.80214e-06 -1.87537e-06)
(-4.2642e-06 -1.79988e-06 -5.83318e-06)
(-4.70546e-06 -1.03726e-06 -4.82725e-06)
(-2.99452e-06 5.21046e-07 -4.20424e-06)
(-4.18984e-06 1.80345e-06 -3.50977e-06)
(-3.25302e-06 -1.83754e-07 -4.86951e-06)
(-7.10924e-06 6.2297e-07 -8.91938e-06)
(-2.28742e-06 -5.97524e-07 -3.15927e-06)
(-2.97561e-06 -5.89066e-07 -4.53365e-06)
(-1.93353e-06 -5.63937e-07 -2.32912e-06)
(-3.11705e-06 -2.37163e-07 -2.88834e-06)
(-4.51502e-06 5.5352e-07 -5.37989e-06)
(-2.80451e-06 7.46499e-07 -2.73108e-06)
(-2.25828e-06 4.62026e-07 -2.22312e-06)
(-2.55902e-06 2.91108e-07 -3.15276e-06)
(-2.92354e-06 3.40113e-07 -3.52978e-06)
(-4.4749e-06 7.67079e-07 -5.47711e-06)
(-4.27381e-06 -1.85187e-06 -5.07304e-06)
(-2.92136e-06 3.8543e-07 -4.58628e-06)
(-4.82771e-06 1.32614e-06 -3.57672e-06)
(-2.6096e-06 1.18008e-07 -4.38054e-06)
(-4.15987e-06 -9.45681e-07 -4.83695e-06)
(-4.59214e-06 4.26616e-08 -4.86102e-06)
(-2.9755e-06 -1.68968e-07 -4.19808e-06)
(-3.47225e-06 2.18813e-06 -3.04793e-06)
(-4.12952e-06 1.48536e-06 -3.81398e-06)
(-2.05621e-06 -2.90935e-07 -1.96475e-06)
(-3.31146e-06 -3.00889e-07 -3.06206e-06)
(-2.6024e-06 -8.26116e-07 -2.16352e-06)
(-2.46546e-06 -2.05315e-06 -3.43733e-06)
(-4.47626e-06 -9.75027e-07 -3.17031e-06)
(-4.38076e-06 3.56156e-07 -2.6896e-06)
(-3.23955e-06 -2.29844e-06 -3.03471e-06)
(-4.71024e-06 6.42815e-07 -3.99912e-06)
(-4.9183e-06 2.11229e-07 -3.1893e-06)
(-3.9342e-06 7.52807e-08 -2.43629e-06)
(-3.34545e-06 1.16746e-06 -1.73316e-06)
(-2.95447e-06 -5.73664e-08 -2.36665e-06)
(-3.27974e-06 1.26886e-06 -2.1582e-06)
(-5.41404e-06 6.71202e-07 -3.86761e-06)
(-5.32084e-06 1.80869e-06 -3.23938e-06)
(-3.9532e-06 -5.23209e-07 -3.41188e-06)
(-3.35332e-06 1.11787e-07 -3.97095e-06)
(-3.92877e-06 2.21968e-06 -4.55175e-06)
(-3.83968e-06 -1.9394e-06 -2.58058e-06)
(-3.22185e-06 -1.80418e-07 -4.68875e-06)
(-4.61669e-06 -3.83665e-07 -4.38939e-06)
(-3.31623e-06 1.98813e-06 -3.99822e-06)
(-3.28063e-06 -1.26019e-07 -4.97553e-06)
(-4.74646e-06 -2.05687e-07 -3.84099e-06)
(-4.32695e-06 1.37444e-06 -4.1878e-06)
(-4.99621e-06 -2.83406e-07 -4.49443e-06)
(-3.9131e-06 8.78829e-08 -2.81125e-06)
(-2.41794e-06 2.66685e-06 -2.94605e-06)
(-5.4571e-06 -1.70377e-07 -5.13829e-06)
(-9.30817e-06 -7.48915e-08 7.20689e-07)
(-1.07775e-05 2.41848e-06 2.42964e-06)
(-6.7295e-06 4.0997e-06 -5.34837e-07)
(-1.01639e-05 -5.60057e-07 1.22943e-06)
(-1.06902e-05 3.40691e-06 -9.11288e-07)
(-6.53364e-06 5.87889e-07 3.21139e-06)
(-6.5347e-06 2.78057e-06 1.76661e-06)
(-1.07625e-05 3.73264e-07 2.99812e-07)
(-9.51047e-06 6.61234e-07 -1.10143e-06)
(-9.81466e-06 1.24384e-06 7.90173e-08)
(-3.84842e-06 2.92458e-06 5.00912e-06)
(-1.22179e-06 -8.54364e-07 6.68923e-06)
(-3.30168e-06 -9.72367e-07 4.07349e-06)
(-3.60692e-06 4.05484e-07 7.12444e-06)
(-4.96902e-06 -1.17429e-06 6.87288e-06)
(-4.48888e-06 -4.2787e-07 5.75628e-06)
(-3.60469e-06 9.24904e-07 4.53723e-06)
(-5.1747e-06 -1.085e-06 8.46647e-06)
(-3.84933e-06 -6.13801e-07 5.95611e-06)
(-3.44509e-06 -6.1761e-07 5.38527e-06)
(-2.66925e-06 1.71495e-06 3.98969e-06)
(-1.68255e-06 2.95536e-06 4.05571e-06)
(-3.62796e-06 1.72293e-06 7.33183e-06)
(-1.11344e-06 3.05427e-07 2.94111e-06)
(-1.67691e-06 -7.21411e-08 5.22651e-06)
(-4.97708e-08 1.83807e-07 4.68468e-06)
(-1.4394e-06 2.37712e-06 5.87652e-06)
(-1.16975e-06 -5.51629e-08 4.69595e-06)
(-1.13737e-06 -2.36559e-06 5.24247e-06)
(-4.29886e-06 -8.56737e-08 7.21617e-06)
(-3.81469e-06 -9.06894e-07 5.57799e-06)
(-2.76977e-06 5.9509e-07 5.04189e-06)
(-6.53708e-06 7.39611e-07 6.87508e-06)
(-1.98274e-06 1.80672e-06 4.94884e-06)
(-2.41028e-06 1.23056e-06 6.21722e-06)
(-2.62822e-06 9.2101e-07 5.45361e-06)
(-2.16424e-06 8.02613e-07 2.05767e-06)
(-9.65049e-07 2.25442e-06 2.78602e-06)
(-3.43881e-06 -2.15792e-06 6.35484e-06)
(-4.03357e-06 -2.20729e-06 4.94813e-06)
(-5.31614e-06 -1.41812e-06 5.92155e-06)
(-4.84325e-06 -2.36207e-06 8.49955e-06)
(-9.15379e-06 1.94565e-06 1.93033e-06)
(-1.09573e-05 1.67964e-06 8.78347e-08)
(-4.23768e-06 -9.10679e-07 -1.63519e-06)
(-6.22419e-06 -8.38968e-07 2.3526e-06)
(-2.45954e-06 -9.32499e-07 -3.55643e-06)
(-1.7052e-06 7.29844e-07 -2.29723e-06)
(-1.03877e-06 1.78688e-06 -2.55484e-06)
(-2.0595e-06 -1.01835e-06 -3.47506e-06)
(-1.88149e-06 -3.66301e-07 -2.33174e-06)
(-1.53712e-06 2.48685e-07 -2.35994e-06)
(-2.49671e-06 2.22785e-06 -3.27265e-06)
(-1.5004e-06 1.22448e-06 -1.97146e-06)
(-3.53206e-06 -8.19897e-07 -4.49293e-06)
(-2.5976e-06 -1.52503e-06 -3.92136e-06)
(-2.93998e-06 5.94948e-07 -2.86025e-06)
(-2.78513e-06 1.10899e-06 -2.49173e-06)
(-2.20921e-06 1.97402e-06 -2.33173e-06)
(-2.78021e-06 2.42485e-06 -2.96827e-06)
(-2.47669e-06 1.52218e-06 -4.483e-06)
(-3.41338e-06 -1.39515e-06 -3.48274e-06)
(-1.93241e-06 1.90881e-06 -2.36684e-06)
(-2.32092e-06 3.06636e-07 -2.87637e-06)
(-2.27666e-06 6.68274e-07 -2.57276e-06)
(-3.10876e-06 2.64758e-07 -3.25697e-06)
(-2.79515e-06 8.00291e-07 -4.24617e-06)
(-3.36239e-06 -5.78949e-07 -3.82008e-06)
(-3.65673e-06 -1.34915e-07 -3.40167e-06)
(-2.72328e-06 -2.35248e-07 -3.64916e-06)
(-3.33282e-06 4.74885e-08 -2.78304e-06)
(-2.40585e-06 -8.7171e-07 -3.87807e-06)
(-3.064e-06 6.16723e-07 -3.3747e-06)
(-3.94181e-06 7.22802e-07 -4.55525e-06)
(-2.59531e-06 2.57096e-06 -3.4359e-06)
(-3.30556e-06 -9.21537e-07 -2.90461e-06)
(-3.0107e-06 -9.43288e-07 -3.40437e-06)
(-3.11171e-06 1.37474e-06 -2.62766e-06)
(-2.03785e-06 7.50576e-07 -1.99882e-06)
(-1.79999e-06 2.946e-07 -1.82243e-06)
(-2.71911e-06 -3.33222e-07 -2.18926e-06)
(-5.04602e-06 6.58934e-07 -3.31995e-06)
(-3.43957e-06 1.86162e-07 -1.8119e-06)
(-3.30603e-06 -7.39507e-07 -2.53872e-06)
(-4.25215e-06 -6.54272e-07 -2.77283e-06)
(-1.96791e-06 -5.38073e-07 -1.6896e-06)
(-2.99376e-06 2.24812e-07 -1.9239e-06)
(-2.60957e-06 6.90073e-08 -2.50367e-06)
(-4.03326e-06 8.64982e-07 -2.23373e-06)
(-2.71614e-06 8.98606e-07 -2.70913e-06)
(-2.61051e-06 2.52912e-07 -1.60863e-06)
(-3.42404e-06 -5.92296e-07 -3.10446e-06)
(-8.88614e-06 1.41617e-06 1.885e-07)
(-2.93646e-06 4.22627e-07 -2.52708e-06)
(-2.08736e-06 -4.30116e-07 -2.31259e-06)
(-3.41076e-06 -3.19942e-07 -3.71017e-06)
(-1.80314e-06 1.3929e-06 -1.89721e-06)
(-3.88131e-06 1.04199e-06 -3.16056e-06)
(-3.4555e-06 1.73958e-06 -3.2078e-06)
(-3.5616e-06 1.69362e-06 -3.23506e-06)
(-3.25487e-06 -9.23665e-07 -3.04739e-06)
(-9.61707e-07 8.33236e-07 -3.2269e-06)
(-4.84945e-06 7.47821e-07 -4.0197e-06)
(-2.50211e-06 2.41767e-06 -2.31102e-06)
(-2.80052e-06 8.22718e-07 -4.52583e-06)
(-2.61557e-06 2.02563e-06 -1.77899e-06)
(-2.8385e-06 2.26284e-07 -2.3275e-06)
(-2.67297e-06 -1.71461e-06 -2.33954e-06)
(-1.673e-06 3.7551e-07 -3.85418e-06)
(-3.58768e-06 -9.24742e-07 -2.27661e-06)
(-1.03561e-05 2.42012e-06 -4.23716e-06)
(-1.41873e-05 4.06555e-06 -6.37882e-06)
(-1.11163e-05 2.92624e-06 -3.47648e-06)
(-1.56751e-05 6.68321e-06 -8.32918e-06)
(-8.0965e-06 -7.09518e-07 5.67734e-07)
(-5.67326e-06 -2.34763e-07 -1.77556e-06)
(-1.00311e-05 2.06037e-06 -6.73145e-06)
(-1.29663e-05 -1.62058e-07 -3.80271e-06)
(-1.26847e-05 2.39251e-06 -5.15987e-06)
(-9.47787e-06 -6.39911e-07 -6.82362e-06)
(-1.4444e-05 9.61686e-07 -4.9559e-06)
(-1.67031e-05 3.23512e-06 -1.13939e-05)
(-8.986e-06 1.67055e-06 -4.6386e-06)
(-1.12906e-05 -6.07559e-07 -7.452e-06)
(-7.93465e-06 6.66621e-07 -4.15235e-06)
(-7.56612e-06 2.13102e-06 -4.18333e-06)
(-1.34093e-05 4.36046e-06 -5.92996e-06)
(-1.27952e-05 2.38998e-06 -8.81767e-06)
(-1.34995e-05 1.648e-06 -3.56029e-06)
(-1.37307e-05 4.24553e-06 -5.6448e-06)
(-1.18654e-05 -1.84975e-07 -4.23285e-06)
(-9.71624e-06 -1.96367e-06 -3.0668e-06)
(-7.81735e-06 -2.82742e-07 -5.18953e-06)
(-9.73795e-06 -1.32252e-06 -4.25404e-06)
(-8.73392e-06 -1.55087e-06 -4.89469e-06)
(-1.23296e-05 1.46389e-06 -4.31422e-06)
(-1.05024e-05 -1.49841e-06 -3.00641e-06)
(-8.35117e-06 2.31303e-06 -6.56464e-06)
(-5.85014e-06 1.90333e-06 -1.46341e-06)
(-1.15059e-05 5.76978e-06 -4.73818e-06)
(-1.07823e-05 -4.35992e-07 -2.69468e-06)
(-9.53243e-06 -6.49128e-08 -4.57086e-06)
(-1.35116e-05 -4.135e-08 -4.26886e-06)
(-1.33143e-05 -1.02806e-06 -5.28761e-06)
(-1.6759e-05 -1.46575e-07 -8.15999e-06)
(-1.29563e-05 -3.07998e-06 -4.09142e-06)
(-1.0096e-05 2.46063e-08 -2.94585e-06)
(-1.26534e-05 1.49863e-06 -4.58651e-06)
(-1.52755e-05 9.28178e-08 -4.18306e-06)
(-1.34369e-05 3.09734e-06 -4.0806e-06)
(-1.10611e-05 -1.28128e-06 -3.24752e-06)
(-1.41217e-05 -1.55555e-06 -9.97734e-06)
(-1.22599e-05 4.67272e-06 -9.32574e-06)
(-1.71748e-05 -3.09807e-06 -7.99189e-06)
(-1.20014e-05 -1.38676e-06 -7.74108e-06)
(-8.60073e-06 -2.12173e-06 -3.82506e-06)
(-1.35126e-05 6.66202e-07 -4.73021e-06)
(-7.59611e-06 -8.92816e-07 -5.78948e-06)
(-1.31625e-05 8.7955e-07 -5.83284e-06)
(-9.51522e-06 2.43287e-06 1.00664e-06)
(-6.69226e-06 2.19356e-06 3.21e-06)
(-4.60492e-06 7.25588e-07 2.88537e-06)
(-5.93682e-06 1.79878e-06 2.06876e-06)
(-9.69362e-06 9.3068e-07 6.86251e-07)
(-6.93357e-06 -3.13734e-07 2.13089e-07)
(-5.59316e-06 4.50951e-07 2.20305e-06)
(-6.40832e-06 -2.57015e-07 1.71394e-06)
(-9.39325e-06 2.21891e-06 4.53844e-07)
(-8.42033e-06 2.3002e-06 1.81859e-06)
(-7.98674e-06 4.58396e-06 2.19509e-06)
(-2.61174e-06 1.21856e-06 2.19428e-06)
(-6.82349e-06 1.4022e-06 8.66462e-07)
(-8.8644e-06 2.52037e-06 -3.00357e-07)
(-7.57738e-06 6.56636e-06 7.40138e-07)
(-8.37064e-06 -8.71086e-07 1.4631e-06)
(-7.13395e-06 1.75334e-06 9.23812e-07)
(-7.44145e-06 3.08159e-07 1.59965e-06)
(-7.78631e-06 1.01469e-07 3.53043e-06)
(-1.0056e-05 2.09644e-08 1.85162e-06)
(-6.60027e-06 6.40612e-07 -1.479e-07)
(-7.71736e-06 1.84991e-06 5.3604e-07)
(-1.22198e-05 1.49881e-06 -1.76323e-06)
(-1.22343e-05 8.22977e-07 -1.47164e-06)
(-7.31481e-06 3.95899e-06 -1.66495e-07)
(-7.39704e-06 1.95777e-06 -2.38507e-06)
(-1.09238e-05 -5.15065e-07 -1.96954e-06)
(-7.67686e-06 2.12061e-06 -2.3382e-06)
(-9.04873e-06 2.63468e-06 -5.51926e-07)
(-8.26305e-06 1.6099e-06 -2.61566e-06)
(-8.748e-06 3.89928e-07 -3.43998e-06)
(-7.22336e-06 1.88307e-06 -3.52935e-06)
(-5.11653e-06 3.5268e-07 -2.16619e-06)
(-5.15216e-06 2.06366e-06 9.68366e-07)
(-6.92402e-06 -2.57448e-07 -3.63653e-06)
(-8.59271e-06 -6.32424e-07 -2.95117e-06)
(-4.55583e-06 -5.62241e-07 -2.05976e-06)
(-8.41568e-06 1.91331e-06 -3.31737e-06)
(-7.72866e-06 6.31564e-07 -2.22634e-06)
(-7.64899e-06 -2.71222e-07 -2.00138e-06)
(-8.40375e-06 1.05896e-06 -1.43674e-06)
(-6.9886e-06 1.12518e-06 -1.10545e-06)
(-8.00495e-06 2.36522e-06 -2.86387e-06)
(-6.04857e-06 1.13586e-06 -2.0054e-06)
(-1.04839e-05 -2.53691e-07 -9.92894e-07)
(-8.04159e-06 5.90784e-07 -1.43176e-07)
(-7.89556e-06 1.51959e-06 -2.31195e-06)
(-1.27627e-05 2.73149e-06 1.18834e-06)
(-7.97446e-06 3.38379e-06 -3.96005e-07)
(-1.18355e-05 1.87147e-06 -3.93651e-06)
(-8.01212e-06 1.67566e-06 -3.59206e-07)
(-7.27426e-06 1.0375e-06 -2.26848e-06)
(-6.64592e-06 -3.50758e-07 -2.27445e-06)
(-8.75087e-06 3.14332e-07 -2.50489e-06)
(-9.04677e-06 8.47167e-07 4.19085e-06)
(-7.15863e-06 -3.29396e-08 1.21773e-06)
(-9.31868e-06 4.38926e-07 3.33244e-06)
(-7.83796e-06 -1.17416e-06 -1.73208e-06)
(-1.07519e-05 1.99087e-06 2.97673e-06)
(-7.99384e-06 2.86329e-06 -6.77847e-08)
(-6.10064e-06 8.21852e-07 1.10386e-06)
(-5.04916e-06 1.89632e-06 1.19472e-06)
(-9.20936e-06 5.88951e-06 -2.72192e-06)
(-8.85869e-06 -1.18563e-06 -3.5796e-06)
(-5.83203e-06 1.94571e-06 -2.1041e-06)
(-8.63409e-06 1.45834e-06 -4.67868e-06)
(-8.10221e-06 1.45208e-06 -3.19149e-06)
(-6.27161e-06 2.41938e-06 -2.51639e-06)
(-8.9238e-06 2.48194e-06 -3.4682e-06)
(-6.31526e-06 -1.50575e-06 -2.64715e-06)
(-7.21954e-06 6.9934e-07 -2.23105e-06)
(-7.89228e-06 -8.44759e-07 -8.01594e-07)
(-8.79628e-06 -4.68213e-08 -2.82149e-07)
(-1.15863e-05 1.98691e-06 -4.65243e-06)
(-9.12299e-06 -2.5208e-07 -4.33899e-06)
(-7.63785e-06 1.89881e-06 -3.59946e-06)
(-8.8803e-06 1.47341e-06 -4.00691e-06)
(-5.40427e-06 1.1764e-06 -3.48148e-06)
(-6.62721e-06 -1.40971e-06 -4.23139e-06)
(-8.34035e-06 2.47478e-06 -2.86087e-06)
(-5.71281e-06 2.19999e-06 -1.06586e-06)
(-2.62247e-06 1.98184e-06 1.81564e-06)
(-7.10532e-06 4.65766e-06 2.97173e-07)
(-8.48324e-06 3.30907e-06 3.28594e-07)
(-9.271e-06 3.57109e-06 -9.27602e-07)
(-8.53843e-06 8.51845e-07 -3.48125e-06)
(-7.0592e-06 2.77551e-06 -3.34479e-06)
(-4.35802e-06 2.88977e-06 -2.05269e-06)
(-9.75183e-06 2.0642e-06 -1.95734e-06)
(-4.60299e-06 1.85337e-06 -1.38573e-06)
(-6.78912e-06 -6.26536e-07 -2.57619e-06)
(-7.11439e-06 2.26911e-07 -2.03712e-06)
(-9.59013e-06 1.0801e-07 -9.44825e-07)
(-7.94202e-06 -2.9418e-06 1.27078e-06)
(-8.31554e-06 1.08238e-06 -2.54898e-06)
(-1.034e-05 1.55632e-06 6.13147e-07)
(-7.82741e-06 3.24892e-06 1.82849e-06)
(-5.3994e-06 4.33063e-06 1.03731e-06)
(-9.23495e-06 4.41951e-07 1.3583e-06)
(-4.13956e-06 3.17267e-06 2.83311e-07)
(-8.83002e-06 7.55836e-07 8.43678e-07)
(-7.17445e-06 1.51967e-06 -3.4064e-07)
(-3.79403e-06 -5.8866e-07 -2.06373e-06)
(-6.28688e-06 6.86902e-07 -6.19072e-07)
(-7.26872e-06 2.07918e-06 1.42839e-06)
(-9.38896e-06 9.52465e-07 -3.8793e-06)
(-5.90609e-06 1.46665e-06 -1.65245e-06)
(-7.50817e-06 1.4161e-06 2.92228e-07)
(-8.6469e-06 2.99309e-07 1.28188e-08)
(-7.80659e-06 -1.61016e-06 2.88677e-06)
(-6.14827e-06 -8.64235e-08 9.6117e-07)
(-3.83123e-06 2.50854e-06 1.59703e-06)
(-6.22359e-06 2.10756e-06 -7.59833e-07)
(-8.47548e-06 2.68805e-06 1.10951e-07)
(-6.91233e-06 -1.15518e-06 2.1129e-06)
(-6.04387e-06 -4.3216e-07 1.54836e-06)
(-7.5645e-06 4.15473e-06 2.04862e-06)
(-7.43276e-06 8.58561e-07 2.39316e-06)
(-6.75908e-06 -5.71895e-07 3.63919e-07)
(-9.90479e-06 8.97103e-07 1.78894e-08)
(-7.24866e-06 1.29263e-06 4.2787e-07)
(-6.28733e-06 -7.59567e-07 1.46103e-06)
(-4.48146e-06 2.29044e-06 1.16148e-06)
(-3.86393e-06 2.3162e-06 4.62001e-07)
(-7.25186e-06 -1.73103e-06 1.99751e-06)
(-7.82894e-06 3.25143e-06 1.17522e-06)
(-8.14337e-06 -3.25799e-07 -3.01371e-07)
(-7.10039e-06 -1.97994e-07 1.37567e-06)
(-1.85614e-06 5.44911e-07 2.57168e-06)
(-7.56584e-07 -1.11243e-06 5.11547e-06)
(-1.84929e-06 1.37509e-06 5.6569e-06)
(-1.37249e-06 2.09887e-06 4.35764e-06)
(-3.73367e-06 2.5849e-06 5.01853e-06)
(-8.34491e-06 -5.0701e-07 4.341e-06)
(-8.13669e-06 8.12056e-07 3.35662e-06)
(-8.34519e-06 -1.1999e-06 3.40845e-06)
(-8.16002e-06 -1.65271e-06 3.83846e-06)
(-5.57577e-06 3.62111e-07 2.88233e-06)
(-5.71859e-06 1.46731e-06 2.95933e-06)
(-6.72026e-06 -1.04674e-06 4.00733e-06)
(-7.27854e-06 9.03014e-07 3.0566e-06)
(-8.40028e-06 1.17033e-06 3.80612e-06)