/*--------------------------------*- C++ -*----------------------------------*\
| =========                 |                                                 |
| \\      /  F ield         | OpenFOAM: The Open Source CFD Toolbox           |
|  \\    /   O peration     | Version:  5.0                                   |
|   \\  /    A nd           | Web:      www.OpenFOAM.org                      |
|    \\/     M anipulation  |                                                 |
\*---------------------------------------------------------------------------*/
FoamFile
{
    version     2.0;
    format      ascii;
    class       volVectorField;
    location    "3";
    object      wallShearStress;
}
// * * * * * * * * * * * * * * * * * * * * * * * * * * * * * * * * * * * * * //

dimensions      [0 2 -2 0 0 0 0];

internalField   uniform (0 0 0);

boundaryField
{
    walls
    {
        type            calculated;
        value           nonuniform List<vector> 
100144
(
(0.00587866 -0.0123133 0.000517919)
(0.000106006 -0.000906719 0.00178348)
(-2.06665e-06 9.0437e-06 6.72399e-06)
(-0.000521135 -0.00463291 0.00107988)
(0.000977709 -0.0108548 -3.08293e-06)
(0.00017844 -0.0022004 -0.000811624)
(-0.000374739 -0.00987473 0.00267152)
(-0.00405506 -0.00528915 -0.00539935)
(-0.000412908 -0.00232194 0.00015697)
(-0.00290511 -0.0117033 -3.63352e-05)
(-0.00190973 -0.00846416 0.00314753)
(-0.0013712 -0.00871508 -0.000326991)
(0.00199347 -0.00735862 -0.00063159)
(0.0015848 -0.0059634 0.000201879)
(0.000215678 -0.00955025 0.00010402)
(0.000190731 0.00056007 -0.000244926)
(-0.000655323 -0.00300771 0.00379423)
(0.00148799 -0.0102568 0.000651731)
(-0.00048562 -0.00920074 -0.00121206)
(-4.2035e-05 -0.00105652 -0.000274946)
(-0.00133958 -0.0042631 0.000144649)
(-0.000206904 -0.00588917 -0.000253985)
(-0.000151675 -0.00464362 0.00114007)
(7.24853e-05 -0.00841249 -0.000650103)
(-0.000119401 -0.0052166 -0.00431045)
(0.000758357 -0.00464272 -0.0044794)
(0.00198402 -0.0045947 -0.00325984)
(0.000836801 -0.01056 -0.000419055)
(-0.000309964 -0.00829093 -0.000895098)
(-0.000682272 -0.00347011 -0.000313384)
(-0.000219647 -0.00310425 -0.000517044)
(0.000372411 -0.00573001 0.00113062)
(0.000615853 -0.00534684 -0.00938387)
(-0.000415732 -0.00665219 -0.00050937)
(0.000330836 -0.000813068 -0.000587046)
(-7.33847e-06 -0.0021787 -0.000734797)
(0.000326516 -0.00185668 -0.000464198)
(-2.58453e-06 8.06849e-06 -5.01861e-06)
(0.00046955 -0.00469888 -0.000244395)
(0.000112778 -0.00312135 -0.000501259)
(6.25583e-05 -0.00173555 -0.00156587)
(-0.000818077 -0.00436542 3.91371e-06)
(-0.000468195 -0.00483387 -9.02677e-05)
(0.000901756 -0.0149105 -0.000223112)
(0.00116115 -0.00522938 0.000523752)
(-0.0130168 -0.0156561 -0.00777519)
(-0.000906019 -0.00483536 -0.000189169)
(-0.000382985 -0.00472909 -0.000706338)
(0.00043133 -0.00476665 -0.000248578)
(0.00055983 -0.00570195 -9.80927e-06)
(-0.0107574 -0.0151706 -0.00810154)
(2.17665e-05 0.000426418 0.000500351)
(0.000489644 -0.00736645 0.000754153)
(-0.00280214 -0.00787637 -0.00494695)
(0.00546698 -0.0102821 0.00335246)
(0.00317218 -0.00912666 0.00387144)
(0.00028857 -0.00571157 0.00203632)
(0.00495443 -0.011419 0.0044525)
(0.00214501 -0.0083642 0.00328931)
(0.00492183 -0.0128123 0.00489167)
(0.00682527 -0.0165556 -0.00935708)
(-0.000192352 -0.000652427 0.000545374)
(-9.66463e-05 -0.0019102 0.000227891)
(-0.000129737 -0.000464642 0.000698783)
(-0.000230528 -0.00143065 -0.000474396)
(-0.00419383 -0.0071552 0.00690514)
(0.000294563 -0.00442689 -0.000429488)
(-0.000546739 -0.016298 0.000157542)
(0.000959114 -0.00534173 0.000815242)
(-0.000164199 -0.00701905 -0.000323299)
(0.0283282 -0.029204 0.0985713)
(0.0202718 -0.0300246 0.0873072)
(0.0191074 -0.025313 0.0804592)
(-0.00215995 -0.00774989 0.00192007)
(0.0248258 -0.0241135 0.087427)
(-7.32082e-05 -0.000932092 9.62509e-05)
(0.00014124 -0.000748071 -0.000271686)
(0.00398281 -0.0160425 0.00214077)
(-0.00295557 -0.0172779 -0.00185583)
(-0.00114961 -0.0154578 -0.000596703)
(-0.00259593 -0.0184308 -0.00172753)
(0.000421254 -0.00210489 -0.00975703)
(0.000926453 -0.000772704 -0.00469429)
(-0.000300356 -0.00229913 -0.000245494)
(0.0058473 -0.0139096 0.00332548)
(0.00636345 -0.0160869 0.0011641)
(-3.03079e-05 -0.000298329 0.000183803)
(-0.000166646 -0.000326439 0.000199666)
(-8.6399e-05 -0.00128977 -0.00100758)
(-0.000543555 -0.00776768 0.0034539)
(-0.000451067 -0.00840229 -0.00104808)
(0.000439279 -0.00794694 -0.00135054)
(0.00147594 -0.00875905 -0.00157261)
(0.000528002 -0.00457335 0.000204331)
(-0.00171828 -0.00896868 -0.00146117)
(-9.51521e-06 -0.00411979 0.000503149)
(0.00309694 -0.0140702 0.00238326)
(0.00278004 -0.014935 0.00286736)
(0.000460006 0.00290217 -0.00110307)
(-0.001239 -0.00390947 -0.000934623)
(5.36702e-05 -0.0135192 0.00161018)
(0.00498088 -0.0140127 0.0023325)
(0.00149998 -0.00115954 -0.000273052)
(0.00129189 -0.000497763 3.00041e-05)
(0.00124154 -0.00200353 -0.000196308)
(0.0015036 -0.00137084 -0.000416331)
(0.002475 -0.000970234 0.000217632)
(-0.0844329 -0.0585196 0.251136)
(0.000179067 -0.00064438 0.000635635)
(0.00123364 -0.000521098 -8.85835e-05)
(-8.75061e-05 -0.0019648 0.00147183)
(-0.00147051 -0.0107205 -0.00540322)
(-0.00132998 -0.00292406 0.00154652)
(-0.00621825 -0.0109755 0.004602)
(-0.00114006 -0.0077166 0.00412199)
(0.000334129 -0.00461542 -2.19035e-05)
(-0.000130065 -0.00760686 0.00188215)
(-0.000318814 -0.00668706 -0.000501987)
(0.000625468 -0.00448058 2.0978e-05)
(0.00133407 -0.00677388 0.00255253)
(-8.65007e-05 -0.0081871 0.0031207)
(-0.000776103 -0.0080176 0.00329731)
(-0.000342124 -0.00769284 0.00270906)
(1.24232e-05 -0.000826571 -0.000417425)
(0.00700593 -0.00564112 0.0248753)
(7.34192e-05 -0.00343937 0.000513268)
(-8.47044e-05 0.00451869 -0.00159161)
(0.000974544 0.00287411 -0.00262781)
(0.00106911 0.00300681 -0.00128251)
(0.000551351 0.00378867 -0.00205893)
(0.00053497 -0.0023817 0.000206309)
(-0.00099234 -0.00358892 -0.000640623)
(8.10885e-05 -0.001131 0.000130513)
(-0.00015291 -0.00232901 -0.000110471)
(0.000141706 0.000234798 0.000829819)
(-0.000696628 -0.00281256 0.000408953)
(0.000274756 -0.00298273 -0.00113619)
(-0.0819353 -0.0532238 0.245633)
(-0.0848896 -0.0532239 0.247329)
(-0.0014343 -0.00288936 0.00252491)
(0.000140731 -0.00077075 -0.000936444)
(-0.00511981 -0.0213715 0.000330474)
(-0.00636286 -0.0210533 -0.00179675)
(-0.00499678 -0.0201036 0.000429633)
(-0.00290847 -0.00353116 0.00125249)
(-0.00317658 -0.0198117 -0.000341915)
(-0.00207172 -0.00439168 0.00156413)
(-0.000393723 -0.000957642 -0.000953236)
(-0.000866603 -0.00376217 -0.000224193)
(3.55008e-05 -0.00315817 -0.000152066)
(-0.000760421 -0.00254195 -0.00108573)
(-0.000120499 -0.00139219 -0.00154528)
(0.000488661 -0.00445632 0.00294804)
(-0.00119884 -0.00413188 0.00184586)
(0.000426679 -0.00270465 -0.00219909)
(0.000100593 -0.00197028 -0.00142898)
(-0.000298713 -2.58647e-05 0.000386461)
(0.000827321 -0.00104016 -0.000743139)
(-0.00145419 -0.00270234 0.000987235)
(-0.00193937 -0.00382529 0.000774384)
(-0.00140189 -0.00344756 0.00251815)
(-0.000102878 -0.00165811 -0.000951107)
(6.99654e-05 -0.001006 0.000492867)
(0.000168757 -0.000251843 -0.00106948)
(0.000964153 -0.00613707 0.0027997)
(0.000178904 -0.00105131 -0.00121158)
(-0.000382155 0.000738616 -0.000608617)
(-0.00626996 -0.0345237 0.389371)
(0.000922865 -0.00201855 -0.000729923)
(-0.00128352 -0.0497416 0.370507)
(-0.00330428 -0.0295529 0.399427)
(-0.0267018 -0.03479 0.389721)
(0.000566031 -0.00129629 -0.00168209)
(-0.000697474 -0.00213762 0.000318983)
(0.00106432 -0.00886816 0.000791514)
(0.00176329 -0.00640291 0.00607276)
(0.00460481 -0.00684237 -0.00396503)
(0.00431646 -0.00674801 -0.00382146)
(-0.00208524 -0.010256 -0.00300865)
(0.00399619 -0.00740154 -0.00385483)
(-0.00021052 -0.00311531 -0.000883531)
(-0.001421 -0.0101427 -0.00266655)
(0.000718343 -0.0108786 -0.0028869)
(0.00101131 -0.00242685 0.000356464)
(-0.0752753 -0.0387927 0.245627)
(0.000327118 0.000604387 -0.000486542)
(-7.0506e-05 0.000610821 -0.000355326)
(-0.00487796 -0.0712326 0.246028)
(2.63945e-05 -0.000207501 -0.001414)
(-0.000222607 4.54984e-05 -0.0013557)
(0.000728982 -0.000132481 -0.00125163)
(-5.49338e-05 -0.000870785 0.00076279)
(-0.000371407 -0.00313579 -0.00174325)
(0.000253777 -0.00281227 -0.000536528)
(1.50998e-06 -0.000786104 -0.00145984)
(-0.00027111 -0.000560719 -0.000999317)
(-0.00125209 -0.0103221 -0.0029123)
(0.00200758 -0.00751579 -0.0023117)
(-0.000732389 -0.00480695 -0.00547532)
(-0.00222531 -0.00799804 -0.00451104)
(-0.0017242 -0.00622159 0.00565324)
(-0.00230634 -0.00518959 0.00604042)
(0.00819094 -0.0231993 0.00308764)
(0.0108423 -0.0227404 0.00304597)
(0.0103861 -0.0227927 0.00275792)
(0.00805486 -0.0235518 0.00399812)
(-1.2298e-05 -0.0010558 0.000372139)
(0.00371157 -0.00677085 -0.00327837)
(-0.000547623 -0.000512344 9.70734e-05)
(0.000173439 -0.000846416 -0.00165113)
(0.00043674 -0.000557714 -0.00241632)
(-7.63231e-05 -0.000395955 -0.00117766)
(-0.000270637 -0.00245226 -0.000324242)
(0.000604577 -0.00149239 0.000500376)
(0.000241729 -0.000434911 0.000199067)
(-5.61569e-05 -0.00171242 -0.000302881)
(0.000694287 -0.00773277 -2.18318e-05)
(0.000136518 -0.0015137 -0.00057759)
(-0.00202495 -0.00442311 0.00152661)
(-0.00202159 -0.00299056 0.000860028)
(-0.00135543 -0.00825714 -0.000733923)
(-0.00112466 -0.00532361 -0.000157471)
(-0.00154953 -0.00765575 -0.000645621)
(-0.000317346 -0.00249818 6.92971e-05)
(-3.33481e-05 0.000149221 0.000325684)
(-7.55483e-05 -0.000195955 0.000434067)
(-0.000252398 -0.00300048 -0.000468718)
(0.000632251 -0.00543379 0.000697244)
(0.00104264 -0.00196239 -0.00135027)
(-0.00113879 -0.00131356 -0.00191519)
(-0.000248408 -0.00277852 -0.000435123)
(-0.000885779 -0.00145718 -0.00230988)
(0.00102902 -0.00308311 6.66254e-06)
(0.00154962 -0.00343333 0.00047181)
(0.00106043 -0.00813868 0.00344508)
(0.00216062 -0.00190287 0.000573096)
(0.000567446 -0.00188303 -0.00103392)
(4.69977e-06 -0.00152007 -0.000703798)
(-0.00290718 -0.00348602 -0.00239067)
(-6.58147e-05 -0.00134407 -0.000445156)
(0.000154492 -0.000234477 -0.000614217)
(-0.000401655 -0.00052484 0.000831182)
(0.000132067 0.000410036 0.000580572)
(-0.0052058 -0.0102253 -0.00229278)
(-0.00510432 -0.00918026 -0.0015216)
(-0.00592587 -0.0104913 -0.00236747)
(-0.00549654 -0.0104985 -0.000683865)
(0.000681536 -0.00160826 0.000956734)
(0.00146985 -0.00233883 0.000403836)
(-0.000180153 -0.000508408 0.00050588)
(0.000278457 -0.00117769 -0.00112646)
(-0.002427 -0.00290688 0.000587518)
(-3.31881e-05 5.36926e-06 -5.74975e-05)
(0.000271643 -0.00228578 -0.00244669)
(-0.00133786 -0.00349687 -0.00144372)
(0.00200877 -0.0026547 0.0011382)
(0.00165153 -0.00204033 0.00141998)
(0.00226489 -0.00276379 0.000795104)
(0.00052168 -0.00768707 0.00565011)
(-0.000147161 -0.00264449 0.00224839)
(-0.000208478 -0.00289508 0.00040759)
(0.000352875 -0.00468861 0.00135864)
(0.000317735 -0.00271097 -0.00192484)
(-3.80264e-06 1.91338e-06 -1.24134e-06)
(-0.00132253 -0.00183062 -0.000486935)
(0.000642394 -0.00253193 -0.00133501)
(0.00198947 -0.00808995 -0.00860752)
(0.00636238 -0.0149051 -0.00964758)
(0.00288023 -0.0120438 -0.00887419)
(0.00338983 -0.0131618 -0.00917753)
(0.00487437 -0.0129882 -0.0093311)
(-0.00175441 -0.00455235 -0.0046271)
(-0.000808791 -0.00133213 -0.00159614)
(-0.0113103 -0.0256826 -0.00665539)
(-0.0066827 -0.0118588 -0.00594222)
(-0.00576803 -0.0130187 -0.006057)
(-0.000113529 -0.00158512 -0.000768668)
(-0.00294897 -0.0120555 -0.00420301)
(-0.000426041 -0.00177321 -0.00071948)
(0.000948326 0.000787427 3.9814e-05)
(-0.00127229 -0.0030738 0.00116775)
(-0.000285858 -0.00243777 0.000964857)
(5.98949e-05 0.000724865 -0.000281006)
(0.00048235 -0.00101191 -0.000606259)
(0.000451624 -0.0070474 0.00281605)
(-0.00071039 -0.00877198 0.00378352)
(0.00129514 -0.00794991 0.00349107)
(-0.00571149 -0.00937124 -0.00206061)
(-0.00510036 -0.00840567 -0.00314066)
(0.00109914 -0.00165136 -0.000464157)
(-0.00597693 -0.00978922 -0.00239746)
(-0.0056941 -0.00839467 -0.00304926)
(7.93976e-05 -0.00700914 0.00318859)
(-0.00100769 -0.00238678 8.56503e-05)
(-0.00172262 -0.00607314 -0.00115702)
(-0.000318688 -0.00347131 7.13603e-05)
(-1.33124e-06 2.5804e-06 5.34697e-07)
(0.000442751 -0.000574308 -9.51492e-05)
(3.78863e-05 -0.00569295 -0.00164144)
(0.000758322 -0.00296382 -0.00178027)
(-0.00334872 -0.0100719 0.00194857)
(0.00014177 -0.000426321 -0.000112112)
(-0.00183145 -0.00950003 0.00106608)
(-0.00200422 -0.00994771 0.0014745)
(-0.000888436 -0.00377017 -0.000414664)
(-5.79802e-05 -0.00156053 -3.85026e-05)
(0.000873119 -0.00540071 -0.000150765)
(0.000683986 -0.00203242 0.000249949)
(-0.000569044 -0.00399908 -0.00343453)
(-0.000540588 -0.00250614 -0.00207511)
(-0.000613328 -0.00248924 -0.0023249)
(0.000332166 -0.00141207 7.60592e-05)
(0.00015227 -0.0117736 -0.00231669)
(-0.000346569 -0.0161265 -0.00241909)
(-0.00126695 -0.0130969 -0.00283793)
(-0.000320938 -0.000521276 -0.000134467)
(0.00198683 -0.0131112 -0.00132409)
(-0.000779502 -0.00803445 -0.00144506)
(-0.00104833 -0.00882253 -0.00099775)
(-0.000176636 -0.00839397 -0.00138657)
(0.000573103 -0.00790383 -0.000932073)
(0.00455984 -0.010915 0.00533735)
(0.00102565 -0.00426801 -0.0110218)
(-0.000232188 -0.00153978 0.000773868)
(0.000347169 -0.000910095 0.000690895)
(-0.000135405 -0.000862838 0.000331435)
(-8.1318e-05 -0.000537607 0.000519449)
(0.000123362 -0.000405097 7.90336e-05)
(0.00354336 -0.0107419 0.00640634)
(0.00237718 -0.0111807 0.0095689)
(0.00272557 -0.0117309 0.00707775)
(0.00203717 -0.00922095 -0.0248195)
(-0.000343843 -0.00459488 0.000315419)
(0.000694003 -0.00688287 -0.0087003)
(0.00104858 -0.00122052 -0.00167203)
(0.00177653 -0.000901536 -0.00143136)
(0.00063283 -0.002913 0.000760448)
(0.00236519 -0.0101571 -0.0231453)
(0.000473603 -0.000329032 5.52505e-05)
(0.00336494 -0.00593597 -0.0136203)
(0.000368578 -0.00307028 0.000411911)
(-0.000115354 -0.000373365 0.000344808)
(-0.00266839 -0.0088704 -0.0255096)
(-0.000207035 -0.00168554 0.000297181)
(-0.000177337 -0.00187946 -0.000351928)
(0.000242499 -0.0122036 0.00343712)
(0.00177782 -0.00926147 0.0040754)
(-0.0070447 -0.016593 -0.00162131)
(-0.00703851 -0.0159284 0.00128644)
(0.000311509 -0.00130379 0.000525622)
(0.000447992 -0.00277959 -0.00247682)
(6.39317e-05 -0.00122455 0.0010026)
(-3.63791e-05 -0.00133119 0.000870113)
(-0.000103722 -0.000615057 0.000745709)
(0.000221922 -0.00244767 -0.000549956)
(-0.000317366 -0.00282623 -0.00130495)
(0.000294713 -0.00126898 -0.000984993)
(-0.000572919 -0.00370556 -0.00280041)
(-0.000653439 -0.00256474 -0.00195825)
(0.00116729 -0.00367401 -0.0035532)
(-0.000412335 -0.00194534 -0.0013721)
(-0.000517858 -0.00273819 -0.00223252)
(7.73665e-05 -2.91929e-05 0.000676826)
(0.000887356 -0.00732277 0.00264155)
(-0.00159977 -0.00632089 -0.000630097)
(0.00118315 -0.0130903 0.00608146)
(0.000152813 -0.000983736 -0.000887435)
(1.1448e-06 2.05212e-05 8.8778e-06)
(0.0699344 -0.065496 0.253341)
(0.0632947 -0.0578111 0.24678)
(-0.00157503 -0.00314431 0.00180237)
(0.000482159 -0.00523843 -0.000613756)
(-0.000332221 -0.00108265 0.000258039)
(0.000330799 -0.00212862 -5.71934e-06)
(0.000442026 -0.0028265 -0.000166955)
(0.000279943 -0.00396817 0.00030834)
(6.20343e-05 0.000236544 -4.62873e-05)
(-0.00336512 -0.0172266 0.00554276)
(-0.00358788 -0.0167719 0.00547485)
(0.000689329 -0.0119442 0.00409743)
(-0.00167925 -0.0164178 0.00448637)
(-0.00117226 -0.00324073 0.00391401)
(-0.000139159 -0.000110843 -7.0975e-05)
(0.00145756 -0.0040513 -0.000387845)
(0.000517273 -0.00052347 0.00227569)
(0.00154024 -0.0193238 0.00482658)
(0.000124469 -0.00015341 0.000838012)
(0.000106741 -0.000394985 0.00127839)
(0.000144446 -0.00119752 -0.00171092)
(-0.000576959 -0.00202272 -0.000844257)
(0.00454106 -0.0172844 0.00662489)
(0.0662363 -0.0691141 0.315584)
(0.00453517 -0.0185616 0.000752702)
(0.000197337 -0.00183713 0.000115791)
(-0.00118738 -0.0153384 0.000483225)
(0.000430579 -0.0153598 -0.000338753)
(-0.00103703 -0.0136521 -0.000158529)
(0.000363274 -0.0145496 -0.000756375)
(0.00329009 -0.00853088 0.0027594)
(0.0693622 -0.0730354 0.231765)
(-0.00206845 -0.00913817 -0.00734727)
(-0.000287333 -0.00273131 -0.000411967)
(-0.00124568 -0.00333041 -0.00508796)
(0.000364702 -0.015621 -0.00134033)
(-0.00344208 -0.00481515 -0.00306782)
(0.0024049 -0.0216377 0.00465867)
(-0.00510503 -0.017797 -0.00105641)
(-0.00297549 -0.0181346 0.00203969)
(-0.00304628 -0.0192106 0.00350865)
(0.000101944 -0.00352493 -0.00020435)
(-0.00108004 -0.0153371 -0.00681433)
(0.00847776 -0.0107166 -0.00561427)
(0.000476005 -0.0160835 -0.00187698)
(0.000246298 -0.00500056 -0.000114461)
(-0.00191854 -0.00349264 -7.94335e-05)
(-0.00203222 -0.0141039 -0.00184828)
(-0.000178035 -0.0148444 -0.00206184)
(-0.000205444 -0.00720195 -0.000158718)
(-4.30061e-05 -0.00166259 0.000262978)
(0.00010811 -0.0130122 -0.0366241)
(-0.0037443 -0.00507395 0.00485472)
(-0.00148328 -0.00398449 0.00214099)
(-0.000246312 -0.000580077 -0.000107572)
(0.00112619 -0.00340355 -0.00499282)
(0.00227452 -0.00425084 -0.00653688)
(0.000708507 -0.0056324 -0.0055789)
(0.00084917 -0.00473637 -0.00572029)
(-0.00446882 -0.00864365 -0.00280369)
(0.00129941 -0.00710201 -0.00927683)
(-0.000278054 -0.000690232 -5.24523e-05)
(0.0142831 -0.0395795 0.155747)
(0.02159 -0.0492884 0.163148)
(0.0309865 -0.0453926 0.176567)
(0.0278882 -0.0543724 0.172816)
(0.00520417 -0.0155214 -0.003039)
(0.00712203 -0.0128797 -0.0304356)
(-0.00203937 -0.00605081 -0.00253896)
(-0.00271553 -0.00600766 -0.00286054)
(0.00154402 -0.00299379 0.000990187)
(-0.00231937 -0.0120097 0.00256652)
(-0.00123469 -0.0063008 -0.00379483)
(5.64721e-06 1.13541e-05 1.62362e-06)
(0.00475864 -0.0040884 0.0179568)
(0.000221061 -0.00446158 0.000247763)
(-0.000312204 -0.00838895 0.00419008)
(0.000655848 -0.0133826 0.00659827)
(-0.00202684 -0.0117219 0.00445524)
(8.98548e-05 -0.0118243 0.00668572)
(-0.00169171 -0.0116759 0.00691966)
(-0.000822682 -0.00247534 -0.000628577)
(0.00664526 -0.0124691 0.00171128)
(0.00660519 -0.0119527 0.00319229)
(-9.26319e-06 -0.00017942 0.000204502)
(0.000464175 -0.00384447 -0.00573064)
(0.000466023 -0.00335207 -0.0053631)
(0.000199903 -0.00361882 -0.00484082)
(0.000925956 -0.00300892 -0.00458335)
(-5.19322e-05 -0.000191796 0.000132165)
(0.000878628 -0.00188116 0.00072049)
(-0.000221098 -0.000388579 -6.94181e-05)
(1.44993e-05 -0.000535476 6.52788e-05)
(-0.000206453 -0.000532105 -8.42389e-05)
(-5.67876e-05 -0.000464392 -1.32857e-05)
(-0.00881331 -0.0120737 -0.0112177)
(0.00052361 -0.0092621 -0.00523718)
(3.09196e-05 -0.00847701 -0.00547349)
(0.000279836 -0.00907633 -0.00491044)
(-0.000576467 -0.00857051 -0.00536536)
(-0.00134598 -0.00171164 0.000400306)
(-0.00052619 -0.00339021 0.000691666)
(-0.000521473 -0.00395448 1.81013e-05)
(-0.000115044 -0.00102659 7.8668e-05)
(-0.00219904 -0.0103066 0.00527289)
(-0.00215928 -0.00846544 0.0036643)
(7.11201e-05 -0.0102899 0.00569925)
(-0.000996464 -0.0100994 0.00539425)
(-0.00144347 -0.00623331 0.00365348)
(-0.00252141 -0.0115549 0.00345813)
(-0.00144678 -0.00763803 0.00100957)
(-0.00138856 -0.00531574 0.000903332)
(-0.000453224 -0.0054807 0.000383326)
(0.00667829 -0.0192814 0.00490215)
(0.0104084 -0.0241165 0.00143237)
(0.0105642 -0.0224876 0.0029027)
(0.0126576 -0.0253183 0.00146297)
(-0.00014133 -0.00146338 -0.000898399)
(0.000283196 -0.00103574 -0.000824359)
(-0.00110015 -0.00158366 -0.000298545)
(-0.000768169 -0.00182842 0.000755469)
(-0.0019447 -0.00189158 0.00113757)
(-0.00081074 -0.00120543 0.000924595)
(0.000245072 -0.0041974 0.00259887)
(5.8719e-06 -0.00301731 0.00219356)
(0.000465505 -0.0117367 0.000925102)
(0.000225476 0.000412049 -0.000240506)
(0.000226249 0.000658173 -0.000201279)
(0.00130853 -0.0129456 0.00194303)
(0.000915194 -0.0113349 0.00141985)
(-0.0019484 -0.0148748 0.000537732)
(-0.000160107 -0.00089522 -0.00062805)
(-0.0024069 -0.00559943 0.00417859)
(-0.0024566 -0.0130643 0.00102751)
(5.47378e-05 -0.00286896 0.00109073)
(-0.000146068 -0.00194926 -0.000150827)
(-0.000219229 -0.00296462 -0.000255606)
(0.000223094 -0.000746061 0.000465685)
(-0.000939919 -0.00794538 0.0025212)
(-0.00172797 -0.00706309 0.00202698)
(0.00470547 -0.00974296 -0.00677315)
(0.0049523 -0.0126714 -0.00929307)
(0.0064062 -0.0110594 -0.00666954)
(-0.0010462 -0.00824595 0.00355944)
(-0.000895925 -0.00647743 0.00489223)
(0.000286767 -0.00147132 -0.000841041)
(2.62937e-05 0.000256145 0.000235389)
(-0.00011962 -0.00510171 0.000223126)
(-0.000222667 -0.00467738 0.0016087)
(0.000422885 -0.0013554 0.00302047)
(-0.00224975 -0.0114877 0.000554229)
(-0.00074574 -0.0126839 0.00171)
(-0.000161667 -0.0130939 0.00164097)
(-0.000461213 -0.00147196 -0.000209563)
(-0.000639194 -0.000345308 -0.000680291)
(-0.000129578 -0.000110929 0.000324543)
(0.00054062 -0.0016525 0.000126373)
(0.00083677 -0.00192649 -0.000455323)
(-0.000834545 -0.00495298 -0.000684836)
(5.20817e-05 -0.00080139 0.000599295)
(0.000676244 -0.00435258 -5.5181e-05)
(0.000873099 -0.00681106 0.00231974)
(-0.000980306 -0.00332638 0.00164431)
(0.000304187 -0.0072427 0.0053802)
(0.000499907 -0.000867316 -0.0016659)
(-0.00127944 -0.00654058 0.00382284)
(-0.00152733 -0.00235646 0.00514519)
(-0.000212036 -0.00137639 -0.00421489)
(-2.33418e-06 -0.000698461 -0.0033998)
(-0.000589343 -0.00193649 0.00171162)
(5.05602e-05 -0.00109962 -9.79245e-05)
(-0.0015094 -0.00690556 0.00653961)
(0.00135333 -0.00840467 0.00211395)
(0.0070155 -0.0193012 0.00221315)
(-0.00504317 -0.00504686 -0.008113)
(0.00023226 -0.00127388 0.000554229)
(-0.00138722 -0.00471723 6.24143e-05)
(0.00915215 -0.0175592 -0.00286739)
(0.00139878 -0.00734713 0.00553535)
(-0.000686542 -0.00774912 0.00271128)
(0.00422344 -0.00591575 0.000418581)
(0.00013008 -0.00267002 8.95243e-05)
(0.00117836 -0.0087753 0.00633049)
(-0.000258879 -0.000442366 -0.000254023)
(-9.81592e-05 -0.00104749 0.00182151)
(-1.73246e-05 -0.00145801 -0.00166411)
(-0.000209974 -0.003083 0.000881232)
(0.000129697 -0.00224611 -0.0015194)
(-0.000508396 -0.00378586 0.00206063)
(-0.000242393 -0.0025771 0.000839721)
(-8.52419e-05 -0.00335801 -0.000154914)
(4.78894e-05 -0.00293283 -0.000114654)
(-0.00756924 -0.0178643 0.00384491)
(-0.00816045 -0.0202055 0.00714716)
(-0.00713485 -0.0176665 0.00451223)
(0.00422605 -0.0160321 0.00361985)
(0.00310812 -0.0158539 0.0040064)
(0.00399928 -0.015865 0.00369913)
(0.000958449 0.00260712 -0.000757239)
(-0.00619718 -0.0118116 -0.0115325)
(-0.000675952 -0.000507667 0.00196312)
(1.87465e-05 -0.0013231 0.000546311)
(0.000521887 -0.00202382 0.00107848)
(0.000320562 0.000481929 -0.000314651)
(0.000179612 0.000286527 -0.000114913)
(0.00423887 -0.0122966 0.000480071)
(0.00026703 -0.00209016 -0.00157908)
(0.00192887 -0.00447942 0.000463533)
(0.000369173 -0.00552787 0.000236589)
(-0.00153482 -0.00373291 0.00533657)
(-0.000564843 -0.00395406 -0.000720037)
(-0.000336997 -0.00232497 -0.000826066)
(-0.00047944 -0.00431707 0.000423721)
(-0.00182783 -0.0075739 0.00141504)
(-0.000915203 -0.00789896 0.0028731)
(-0.0013966 -0.00775018 0.00289074)
(-0.000804934 -0.00391661 -0.000929486)
(-0.00430445 -0.00695672 -0.00378635)
(-0.00133919 -0.015761 0.0061319)
(-0.00183847 -0.0154712 0.00468561)
(-0.000715086 -0.0147586 0.00405976)
(-0.00345809 -0.0172555 0.00500561)
(-0.000127869 -0.00116256 -0.00108556)
(-0.000664554 -0.00344531 -3.31226e-06)
(-0.00116459 -0.00380726 -0.00652536)
(0.00119643 -0.00558862 0.00540478)
(-0.00235013 -0.00518079 -0.00543084)
(-0.00314724 -0.00616924 -0.00536353)
(0.000189527 -0.00344243 -0.000823647)
(0.00152018 -0.00470533 0.00387819)
(0.00166035 -0.00356757 0.000648062)
(-0.000236716 -0.00234704 0.000489315)
(0.000131667 -0.00121856 -7.28558e-05)
(-0.000122415 -0.0025683 8.15086e-05)
(-0.000106496 -0.00170329 0.000177636)
(-7.65341e-05 -0.000193121 0.000970798)
(0.00199895 -0.00962858 0.00575439)
(-0.000524369 -0.0026253 0.000583437)
(-0.000778951 -0.00483229 0.00198645)
(-0.00398043 -0.00133174 0.00497896)
(-0.000230625 -0.0040521 -7.62014e-05)
(-0.000318008 -0.000528912 -0.000148455)
(-0.000200305 -0.00118478 -0.000322649)
(-0.000344485 -0.00192172 -0.00123362)
(-0.000589335 -0.00310582 -0.000241562)
(-0.000445697 -0.00166853 -0.000880285)
(0.000580283 -0.00087118 -0.00105071)
(0.000762012 -0.0151801 0.00145783)
(-0.000272824 -0.0107002 0.00115378)
(-0.00134454 -0.0132577 0.00232561)
(-0.00270321 -0.0141774 0.0007599)
(-5.22111e-05 -0.000633094 -0.000801152)
(-0.00423972 -0.0131764 0.00152493)
(-0.00201646 -0.0020833 0.000540197)
(-0.0051179 -0.0116097 0.0034941)
(9.46119e-05 -0.00152806 -0.000886357)
(-7.84749e-06 9.74333e-05 0.000587407)
(0.00212079 -0.000285985 -0.00204606)
(-0.000124593 -0.000857266 -0.000234227)
(-0.00664898 -0.016478 -0.00081097)
(-0.00031229 -0.00534678 -0.000503285)
(-6.83668e-05 -0.0013794 0.00038023)
(0.000267506 -0.00376567 0.0034378)
(-0.000340069 -0.00238234 0.000806185)
(0.000463637 -0.00101782 0.000699347)
(-0.000499392 -0.000887091 -0.000111494)
(0.0523554 -0.0568642 0.283074)
(0.00438301 -0.0132221 -0.00112589)
(-0.000352256 -0.000598966 0.00169762)
(8.15917e-05 -0.00115146 0.00106083)
(7.83643e-05 -0.000699523 0.000401904)
(6.05384e-05 -0.00603726 -0.000415988)
(0.00159324 -0.00187712 -0.00265446)
(-0.00178918 -0.00598592 -0.000443845)
(-0.00348533 -0.0100898 -0.000148409)
(8.96328e-05 -0.00142438 -0.00120795)
(-2.88757e-05 -0.00134955 -0.00125507)
(0.000920132 -0.00378482 0.00349863)
(-0.000132617 0.000194491 -0.000529831)
(-0.000715126 -0.00393501 -0.000689487)
(8.65444e-05 -0.00499982 4.43474e-05)
(-0.00142271 -0.000847352 0.000582394)
(-0.000392999 0.000184145 -0.000658427)
(-0.00121841 -0.00103609 -0.00172164)
(-0.00152831 -0.0053539 -0.000600387)
(-0.000239347 -0.00213833 0.00130187)
(0.00104024 0.000867391 -0.000677609)
(-0.000617195 -0.0045423 0.000291747)
(-0.000371032 -0.00245465 0.00171218)
(-0.000463125 -0.00318983 0.00176385)
(0.000272643 -0.00196933 0.000477795)
(0.000259157 -0.00103232 -0.000991624)
(0.000111737 -0.00261472 0.000570884)
(-0.00148602 -0.0131883 -0.00169101)
(-0.0049489 -0.0111285 0.00230441)
(0.000452468 -0.000514122 -0.000762903)
(0.00074401 -0.00084271 0.000766134)
(0.000846137 -0.00134792 -0.00104148)
(0.000590216 0.000341516 -0.00223537)
(0.000561893 -0.00261876 0.0012323)
(0.0020053 -0.0108725 -0.00327348)
(-0.00086887 -0.0123623 0.00021099)
(-0.00130669 -0.00429002 0.000826886)
(-0.000596793 -0.00611143 -0.000464285)
(0.000118524 -0.00141376 0.000637227)
(-0.00177513 -0.01258 -0.00260291)
(0.000359062 -1.15903e-05 -0.000282767)
(0.00540065 -0.0182815 0.00326749)
(-0.000620082 -0.00415331 -0.00188437)
(0.00164163 -0.0113492 -0.000229087)
(5.77884e-05 -0.00872421 -0.00202359)
(0.0012245 -0.00894038 -0.000711432)
(0.000593322 -0.0106204 -0.000232296)
(-0.00033574 -0.000500439 -0.000293463)
(0.000678753 -0.00229946 -9.9694e-05)
(0.00134899 -0.00143229 -0.00244646)
(-0.000268128 -0.0031927 0.00234154)
(-0.00269117 -0.00482395 0.00136952)
(0.0017386 -0.00932855 0.00544209)
(-0.00269404 -0.00659346 0.00638313)
(-0.000692956 -0.00359541 -0.000412841)
(0.000200596 -0.00176133 0.000143902)
(0.00293999 -0.0115347 -0.0144187)
(-0.000821349 -0.00196954 0.000584665)
(0.000345862 0.000411381 -0.000208888)
(0.00124535 -5.24272e-05 -0.000283147)
(0.00250699 -0.00178351 -0.00202998)
(-0.000578496 0.000694604 -0.00151318)
(-0.00109715 0.000277377 -0.00107323)
(0.000187177 -0.000660025 -0.00135182)
(-0.000345992 0.0003307 0.00109445)
(8.67685e-06 -0.00021781 0.0011469)
(-0.00128625 -0.00407251 0.00198615)
(-0.000330196 -0.00351076 0.00142992)
(0.00365184 -0.00507794 0.00477073)
(0.000211879 -0.000649643 -0.00180305)
(8.82987e-05 -0.00115623 -0.00244528)
(-0.00114816 -0.000276384 0.00203622)
(0.000303063 -0.00651222 -0.0154225)
(0.000486216 -0.000828246 -2.21198e-05)
(0.00517794 -0.007248 -0.0256453)
(0.000713506 -0.00343562 -0.00767803)
(-3.96056e-05 -0.000554492 -0.000127746)
(0.000708096 -0.00112659 -0.00113868)
(0.00121394 -0.00904666 0.00107461)
(-0.0130719 -0.0178911 -0.0129462)
(-0.000987013 -0.00951289 0.000813057)
(-2.28673e-05 -0.00123925 -0.00280527)
(0.00275131 -0.00712693 0.00114387)
(-0.0040371 -0.00648188 -0.0042715)
(1.10756e-06 7.92356e-06 -8.74714e-07)
(-0.000711139 -0.00899456 0.000555874)
(-0.0013394 -0.00623878 0.00104147)
(-0.00277904 -0.00719022 -0.0058385)
(-1.65558e-05 -0.00139324 -0.000460564)
(-0.000141525 -0.00331061 -0.000150151)
(0.000426145 -0.00196647 0.00115773)
(-0.000357782 -0.00530811 -0.00577141)
(0.00290095 -0.00854987 0.00635801)
(-0.00345592 -0.00669407 -0.00433045)
(0.00570101 -0.00954426 -0.0143281)
(0.00132349 -0.0102475 -0.0201575)
(0.0031934 -0.010933 -0.0173113)
(-0.00586369 -0.00784595 -0.00967784)
(0.000247846 -0.000791198 0.00321575)
(-0.00157218 -0.00471747 0.00222161)
(0.00081013 -0.000973037 0.00252196)
(0.00021806 -8.48309e-06 0.00261369)
(-0.000345118 -0.000332137 0.00418743)
(0.000183723 -0.000851517 0.00407851)
(-0.00237377 -0.0128908 -0.00137113)
(0.000435822 9.40405e-05 -0.00171231)
(0.000406068 0.000758558 -0.000630129)
(2.82867e-06 -0.000300341 0.000168465)
(0.00226896 -0.00590644 0.00327448)
(-4.37752e-05 -0.000299347 0.000145718)
(0.00193082 -0.00257199 -0.00288052)
(2.75016e-05 -0.000846024 -0.00192088)
(0.00195016 -0.00138564 -0.0025251)
(0.00127459 -0.00045507 -0.00244273)
(2.03624e-05 -0.000799264 -1.035e-05)
(-0.000659987 -0.00905702 0.000635531)
(0.00566971 -0.01915 0.00716765)
(0.000112609 -0.000971552 -1.32864e-05)
(-0.000511506 0.000262698 -0.000174054)
(0.000904546 -0.00508281 -0.00290477)
(0.00427995 -0.0169763 0.00370935)
(0.00527424 -0.0163066 0.00496884)
(0.00678475 -0.0165124 0.0053892)
(0.00550106 -0.0161087 0.00407159)
(-6.81302e-05 -0.0031406 -0.000169992)
(0.000589772 -0.0042109 0.00288683)
(0.00026094 -0.0135524 -0.000286831)
(0.00500933 -0.0194263 0.00387032)
(0.00160898 -0.0202707 0.00420805)
(0.00151285 -0.00462855 0.00256007)
(-0.00152803 -0.00807679 -0.000325856)
(-0.00159439 -0.00822152 -0.00107303)
(-0.00173377 -0.00179337 0.00246877)
(0.000384608 -0.000436251 0.000236253)
(-0.00101611 -0.00846871 0.00043249)
(-0.000126252 -0.0164211 -0.00104548)
(-0.000314206 -0.0119426 5.10732e-05)
(0.000282475 -0.000390862 -0.000115359)
(-3.95992e-05 -0.00163622 -0.00112067)
(0.00103385 0.00103492 0.000426606)