/*--------------------------------*- C++ -*----------------------------------*\
| =========                 |                                                 |
| \\      /  F ield         | OpenFOAM: The Open Source CFD Toolbox           |
|  \\    /   O peration     | Version:  5.0                                   |
|   \\  /    A nd           | Web:      www.OpenFOAM.org                      |
|    \\/     M anipulation  |                                                 |
\*---------------------------------------------------------------------------*/
FoamFile
{
    version     2.0;
    format      ascii;
    class       volVectorField;
    location    "2";
    object      wallShearStress;
}
// * * * * * * * * * * * * * * * * * * * * * * * * * * * * * * * * * * * * * //

dimensions      [0 2 -2 0 0 0 0];

internalField   uniform (0 0 0);

boundaryField
{
    walls
    {
        type            calculated;
        value           nonuniform List<vector> 
100144
(
(0.0162815 -0.0796679 -0.030918)
(5.07921e-05 0.000578019 -0.00153426)
(-0.000862665 -0.000759849 -0.00231523)
(0.00516456 0.00896514 -0.00200769)
(0.00758446 0.0940024 -0.0219379)
(-0.000924734 0.0150173 0.00392579)
(0.00116328 0.0253826 -0.0100574)
(0.0252661 0.0244137 0.0389198)
(0.00289328 0.0151997 -0.00105688)
(-0.00712721 -0.0296051 0.000621485)
(-0.00494694 -0.022709 0.00726337)
(-0.00210561 0.088028 0.00742154)
(-0.0203378 0.0855556 0.0049394)
(-0.0194758 0.0762066 -0.00289505)
(-0.00614063 0.109435 0.00390023)
(-0.00185357 -0.00700059 0.00287541)
(0.000881643 0.00195807 -0.00335749)
(0.00589964 0.087883 -0.0254936)
(0.00508066 0.0965488 0.0116843)
(-0.000189411 0.00741569 0.00214045)
(0.00123358 -0.000854399 -0.00263899)
(0.00202422 -0.00216391 -0.00258601)
(0.00285715 0.00713665 -0.00396895)
(0.000339911 0.0817334 0.00801833)
(-0.00674963 0.0210702 0.0261133)
(-0.0072415 0.0225295 0.0285174)
(-0.0133401 0.0229173 0.0264054)
(-0.00350669 0.106529 0.00962065)
(0.00262383 0.0861724 0.00661573)
(0.00437533 0.0355079 0.0053848)
(0.00170205 0.0348641 0.00714929)
(0.0024205 0.00966718 -0.00384854)
(-0.0173698 0.0431301 0.104746)
(0.0067121 0.0591469 0.00579366)
(-0.00246722 0.00727416 0.00524528)
(0.00028166 0.0147018 0.00415495)
(-0.00141886 0.0125585 0.00363301)
(-0.00156183 0.000580817 -0.00219583)
(0.00498432 -0.0222567 0.00173101)
(-0.00224078 0.0343972 0.00542097)
(-0.000518815 0.0127381 0.0121549)
(-0.0106416 -0.04984 0.00496826)
(-0.00523264 -0.0622317 0.00604894)
(0.00259022 0.0570826 -0.00445279)
(0.00559948 -0.02135 0.0047333)
(0.0358225 0.0476878 0.0218272)
(0.000704123 0.00510849 -0.00317122)
(0.00182096 0.00501323 -0.00276735)
(0.000627273 0.00530846 -0.00337606)
(0.000305672 0.00523899 -0.00352079)
(0.0267784 0.0367298 0.0206417)
(-2.91109e-05 0.00043191 0.000339671)
(0.00559906 -0.0217486 0.00448905)
(0.0235231 0.0336351 0.0251253)
(0.0158431 -0.0431521 0.0123156)
(0.0130982 -0.0402619 0.0154052)
(0.00132019 0.0101444 -0.00594372)
(0.0148732 -0.040137 0.0169606)
(0.00681483 -0.0320581 0.0119769)
(0.0133937 -0.0496827 0.0167423)
(-0.0881754 0.16846 0.103754)
(-0.000630518 -0.00231016 0.00182999)
(-0.000333046 -0.0203459 0.00527173)
(-0.000479654 -0.00178224 0.00292219)
(0.00111818 0.0104706 0.00370515)
(-0.0074318 -0.0145131 0.0120558)
(0.00441098 -0.0302298 0.00240814)
(0.0441522 0.185343 0.0400321)
(0.00327577 -0.0238665 0.00311804)
(0.0175696 -0.098812 0.00824242)
(-0.187242 0.191826 -0.741271)
(-0.182165 0.181661 -0.646871)
(-0.182379 0.146353 -0.625406)
(0.00246501 0.00958498 -0.00147769)
(-0.182597 0.176279 -0.65707)
(-0.000233593 8.44902e-05 -0.000193113)
(0.00341902 0.00966003 0.025046)
(0.00549886 0.104198 -0.032171)
(-0.00367462 0.171522 0.026173)
(-0.00161381 0.133262 0.0268985)
(-0.0102101 0.163174 0.0241293)
(-0.00585624 0.0506784 0.19939)
(0.000823122 0.0360037 0.144146)
(0.00103229 0.0163155 0.00164833)
(0.0437051 -0.112711 0.02541)
(0.0333621 -0.119076 0.00731195)
(-0.000177016 -0.00113524 0.000720019)
(-0.00063834 -0.00119312 0.000731365)
(0.000208057 0.00806434 0.00721879)
(0.0233559 0.136817 0.00676062)
(0.00461698 0.123194 0.0483029)
(0.00163519 0.126736 0.0501549)
(0.00300127 0.119839 0.046341)
(-0.000971511 0.00761262 0.000171453)
(0.00755991 0.122078 0.0469325)
(-0.00509913 0.0461545 -0.00316787)
(0.00321279 0.101157 -0.0345374)
(0.00196301 0.0917945 -0.0290181)
(0.0475673 0.179249 -0.174211)
(0.0064181 0.0430308 0.0108016)
(0.00416637 0.0740573 -0.014955)
(0.0287311 -0.104024 0.0174202)
(0.0818727 -0.0558663 -0.00299479)
(0.0727646 -0.0492264 -0.0013143)
(0.0744504 -0.0472817 -0.00783382)
(0.0643957 -0.0570234 -0.000713953)
(0.0642662 -0.0526296 -0.00156922)
(0.0831376 -0.05778 -1.99867)
(0.000484578 -0.00208796 0.00178037)
(0.0521159 -0.0360018 -0.00924389)
(0.00217592 0.0210535 -0.020573)
(0.0202589 0.0449364 0.0177866)
(0.00062823 0.000983801 -0.000386023)
(-0.0171067 -0.0393586 0.0167126)
(-0.00395574 -0.0229601 0.0107898)
(-0.000385321 0.00171671 0.000956107)
(0.00315244 0.0145672 -0.00616875)
(0.00438076 0.0679806 0.00484092)
(-0.000538468 0.00121224 0.000541298)
(0.0227025 0.163738 0.0224217)
(0.0268661 0.195157 0.00242244)
(0.0298602 0.179721 0.018093)
(0.0329345 0.178841 0.0166889)
(0.000318072 0.0065616 0.00333397)
(-0.0916854 0.0823497 -0.354211)
(-0.000917258 0.0357234 -0.00583575)
(0.0591829 0.304217 -0.249687)
(0.0448465 0.150082 -0.162003)
(0.0472427 0.188042 -0.161005)
(0.0461283 0.210151 -0.20384)
(-0.00417417 0.0267951 0.000884864)
(-0.0160212 -0.0534497 -0.0115221)
(-0.00015399 -0.00188435 -1.92464e-05)
(0.00209574 0.0299408 0.00393868)
(0.000506123 0.00133242 0.00293491)
(0.00200914 0.0109069 -0.00180346)
(-0.00280039 0.0222143 0.00837302)
(0.0972939 0.00821956 -1.60662)
(0.088977 0.218828 -2.39367)
(-0.00322375 -0.00663816 0.00618928)
(-0.00131712 0.00636388 0.00757347)
(0.020647 0.125206 0.01643)
(0.0221292 0.132895 0.0185259)
(0.0266127 0.13092 0.0155131)
(0.0276764 0.0574919 -0.0208823)
(0.0257469 0.133356 0.0168002)
(0.0247253 0.0559012 -0.0158999)
(0.0013071 0.00615277 0.0052653)
(0.00559426 0.0239076 -0.000173497)
(6.9532e-05 0.0202697 0.000148376)
(0.00444274 0.01915 0.00834271)
(0.000375407 0.00555179 0.00827075)
(-0.0035976 0.016678 0.0133975)
(-0.00726021 0.0630519 -0.0320485)
(-0.00196391 0.0215921 0.0172016)
(-0.000838916 0.0156938 0.0113663)
(-0.0136495 0.0100048 0.0474852)
(-0.0371341 0.0484198 0.0270482)
(0.00847115 0.0236765 -0.00189114)
(0.0235487 0.0516799 -0.0170544)
(-0.00581028 -0.0197016 0.0184121)
(0.00162199 0.0102789 0.00644053)
(6.05035e-05 -0.00290867 0.00126477)
(-0.00133047 0.00178832 0.00627653)
(2.1617e-05 0.00428229 -0.00226586)
(-0.000904813 0.00632998 0.00710097)
(0.00209826 -0.00352022 0.0042031)
(0.0487827 0.148624 -1.95957)
(-0.0332223 0.0962681 0.0341443)
(-0.0172804 0.118647 -1.84567)
(0.0353887 0.212466 -1.98515)
(0.0156492 0.140226 -2.0718)
(-0.00398655 0.00910954 0.0118225)
(-0.00100663 -0.00408409 0.000746051)
(-0.00216112 -0.0307613 0.0183071)
(0.00123896 -0.00403106 0.00381205)
(-0.035816 0.0482438 0.0331304)
(-0.0442984 0.0534391 0.0414978)
(0.0104855 0.0888171 0.0353466)
(-0.0408587 0.0474188 0.0316591)
(0.00264201 0.0224569 0.00640493)
(0.00562918 0.0864308 0.0333378)
(0.00417605 0.0850334 0.0334146)
(-0.0424234 0.100495 0.0146631)
(0.0829361 0.219297 -2.23725)
(0.0128459 0.0547974 0.0104228)
(-0.00036546 0.0478357 0.0154981)
(-0.133239 0.266002 -2.49168)
(-0.00800572 0.0108195 0.0547891)
(0.0033963 0.0102618 0.0698374)
(-0.0156367 0.018196 0.0629492)
(-0.000189319 -0.00231684 0.00201423)
(0.0033394 0.0241768 0.0120101)
(-0.00103141 0.0213109 0.003645)
(-0.0014694 0.00757512 0.00954339)
(-0.00615714 0.018195 0.0603674)
(0.00644425 0.0905539 0.035771)
(-0.0101371 0.0722286 0.0507238)
(0.0299684 0.042978 0.0470171)
(0.0461603 0.108616 0.0821981)
(-0.00690128 0.019523 0.0237283)
(0.000295314 -0.00178335 0.0180063)
(0.0222164 -0.06982 0.000220743)
(0.0223414 -0.0666826 0.0024255)
(0.0233671 -0.0687447 0.00214379)
(0.0213354 -0.0705481 0.00427862)
(-2.20927e-05 -0.000115858 -7.02523e-05)
(-0.0288857 0.0444375 0.059385)
(0.00393297 0.00696263 -0.000891032)
(0.0035822 0.0315668 0.0690198)
(-0.00201282 0.0297799 0.0686897)
(0.000237645 0.0142219 0.0574407)
(0.00240401 0.0164313 0.00268973)
(-0.00399128 0.00937298 -0.00407444)
(0.000515654 -0.000776279 0.00036022)
(0.000256417 0.0065265 0.00143318)
(-0.0106649 0.103042 -0.00087162)
(-0.000198119 0.0097413 0.00322684)
(0.00169567 0.00350971 -0.000748989)
(0.00147442 0.00220962 -0.000367746)
(0.00534825 0.0800627 0.00917918)
(0.0106537 0.0590942 0.00285777)
(0.015745 0.0809858 0.0106152)
(0.00475042 0.0228498 0.00254968)
(-0.00107551 0.00346052 0.00764646)
(-0.000136139 -0.000297144 0.000851077)
(0.00141031 0.0194466 0.00503852)
(-0.00402143 0.0315419 -0.00337983)
(-0.0393168 0.000414192 0.00220885)
(0.00754603 0.00948707 0.0144563)
(0.00491696 0.0261475 0.00499732)
(0.00604482 0.0137148 0.0206783)
(0.00654529 -0.000732479 0.00915542)
(0.00645861 -0.0210108 0.0023441)
(0.00110312 -0.00552716 0.00181279)
(-0.0354669 0.0472596 -0.00913408)
(-0.00409279 0.0160062 0.00933387)
(0.000152113 0.0130556 0.00588256)
(0.0483517 0.058313 0.0369531)
(-0.000174889 0.0116689 0.00445113)
(-0.00766611 0.0202414 0.0445106)
(-0.000666132 -0.000840787 0.00156113)
(0.000141429 0.000432428 0.000502624)
(-0.0200682 0.0187641 -0.00017722)
(-0.0169618 0.0168308 -0.00578448)
(-0.0192468 0.0186863 0.000589486)
(-0.0210465 0.0178076 -0.000670357)
(0.00133112 -0.00363583 0.00338468)
(-0.00331707 0.0122422 0.000666881)
(-0.000665749 -0.00184966 0.00179904)
(-0.00401368 0.00608294 0.00644081)
(0.0552763 0.0710887 0.00318077)
(-8.83526e-06 -2.51831e-05 -3.8677e-05)
(0.0359517 0.0609651 0.0642703)
(0.00464491 0.00233901 0.00570965)
(-0.0410116 0.0629418 -0.0128292)
(-0.0286761 0.0504872 -0.0163053)
(-0.0437816 0.0653411 -0.00969738)
(0.00153616 -0.0191244 0.0122841)
(-0.00540919 -0.0190247 0.0166695)
(-0.0044091 -0.0207589 0.00664315)
(0.00143314 0.0281682 -0.0160446)
(-0.00287954 0.0250329 0.0187139)
(-0.000957789 0.000218842 -0.000697844)
(-0.00560855 -0.00559485 -0.00269051)
(-0.00243779 0.0194469 0.00953886)
(-0.00400577 0.0185236 0.0139235)
(-0.00995595 0.0326723 0.0224678)
(-0.0038189 0.0277483 0.0218995)
(-0.00343694 0.0265938 0.0226068)
(-0.00449658 0.0284883 0.0206106)
(0.03116 0.0695982 0.0557034)
(0.0267423 0.0311028 0.0200632)
(0.0333582 0.0561844 0.0222435)
(0.0281195 0.0340261 0.0128662)
(0.0222505 0.038856 0.0132143)
(-7.09132e-05 0.0113968 0.00526454)
(0.022306 0.0381118 0.0117664)
(0.00345245 0.0134336 0.00588287)
(-0.00182522 -1.17526e-05 0.000287851)
(0.000854448 0.0013618 -0.000345224)
(0.000347946 0.000929363 -0.000305991)
(0.0111402 0.0819196 -0.0189639)
(0.0690872 -0.0330803 -0.0176896)
(0.0164643 0.15628 0.0268318)
(0.00622071 0.17098 0.0297694)
(0.00690391 0.167984 0.0324745)
(-0.0160391 0.0165798 -0.0026577)
(-0.0129574 0.0141801 -0.00484022)
(-0.0173332 0.00951203 -0.0022706)
(-0.0145783 0.0145594 -0.0034368)
(-0.0150222 0.0163355 -0.002609)
(0.000584988 -0.00864186 0.00206768)
(0.00637195 0.0214165 -0.00254347)
(0.00880836 0.0402528 0.0124448)
(0.00232074 0.0308033 -0.00202706)
(-0.000161177 -0.000214336 0.000239885)
(-0.00971963 0.0146636 0.00227855)
(-0.000671618 0.0432006 0.0137542)
(-0.00476849 0.0221127 0.0137121)
(0.0215211 0.0886673 -0.00689603)
(-0.00223707 0.0143049 0.00144211)
(0.0137683 0.0811661 -0.00681588)
(0.0197786 0.091707 -0.00900704)
(0.00472499 0.0351101 0.0038293)
(0.000187854 0.00377573 -0.000520722)
(-0.00146857 0.00668274 0.000661911)
(-0.0888844 0.090254 0.0116215)
(0.00234431 0.0326634 0.0247499)
(0.00317936 0.0225162 0.0174156)
(0.00391834 0.0205446 0.0182063)
(-0.0179968 0.0603223 0.0106539)
(-0.00496941 -0.0350147 -0.00462209)
(-0.0095741 -0.0621206 -0.00705201)
(-0.0104938 -0.0386877 -0.00576619)
(-0.0104477 -0.0166448 -0.00868574)
(-0.00306284 -0.0447701 -0.00343027)
(0.00206386 0.110631 0.044125)
(0.00464103 0.118991 0.0454165)
(0.00260481 0.12105 0.050125)
(-0.00133804 0.112794 0.0443389)
(0.0108788 -0.0365896 0.0188694)
(0.0170239 0.0633845 0.157011)
(-0.000401271 -0.00304175 0.00127994)
(0.000619606 -0.00185365 0.00119181)
(-0.000300593 -0.00183265 0.000623859)
(-0.000200704 -0.00121465 0.00113105)
(-0.00230655 0.00602369 -0.000501399)
(0.0102148 -0.0366468 0.0199375)
(0.00623434 -0.0392919 0.0280749)
(-0.0060866 0.0361729 -0.010601)
(0.0297596 0.129212 0.162982)
(0.000787922 0.00435914 4.75952e-05)
(-0.00738909 0.0839576 0.125913)
(-0.0458231 0.00395704 -0.00295296)
(-0.0495003 -0.00858746 0.0118424)
(-0.0022506 0.0303861 -0.000507615)
(-0.00766853 0.121621 0.121424)
(3.74826e-06 -0.000202885 7.6162e-05)
(-0.0200015 0.125851 0.106664)
(-0.000661324 0.00303724 -0.000328545)
(-0.00043172 -0.0013949 0.00130144)
(0.0167135 0.161528 0.20208)
(0.000165167 0.00137941 -0.000445455)
(0.00151037 0.0130399 0.0017951)
(0.00168677 0.0148961 -0.0027129)
(-0.00076377 0.0120792 -0.00340536)
(-0.0242409 0.0392806 0.00951983)
(-0.0243139 0.0347535 0.0103002)
(0.00072821 -0.0033462 0.00115137)
(-0.0072667 0.0304798 0.0162495)
(0.000198608 -0.00323605 0.00232363)
(-1.72759e-05 -0.00307474 0.00185906)
(-0.000299073 -0.0015787 0.00184693)
(-0.00134983 0.0196038 0.00432918)
(0.00263624 0.0215311 0.00930565)
(-0.00237145 0.00739255 0.00730694)
(0.00234467 0.0333521 0.0243397)
(0.00423249 0.0216203 0.0165554)
(-0.0106172 0.0388247 0.0345791)
(0.00208004 0.0160368 0.00950992)
(0.00189829 0.0246386 0.0176169)
(6.94389e-05 2.21399e-06 0.00125579)
(-0.0106353 0.0755351 -0.0209694)
(0.009971 0.0651764 0.00294045)
(0.00145775 -0.012615 0.00479599)
(-0.000980953 0.00800891 0.00665529)
(-6.95335e-06 -0.000106307 3.57536e-05)
(-0.0587708 0.353135 -2.56404)
(-0.20772 0.582804 -2.0634)
(0.000957312 0.00203176 -0.00111741)
(-0.00445478 0.00103258 -0.00346665)
(0.000316841 0.000725596 -0.000407819)
(-0.00039947 0.00251158 -0.000712799)
(-0.00296314 0.0255995 0.0011592)
(-0.00555473 0.0401209 -0.00143189)
(0.0347163 0.00309043 0.021793)
(0.00136538 0.0183691 -0.00133556)
(-0.000589422 0.0528775 -0.000405002)
(-0.00158511 0.0449657 0.0130074)
(0.000734584 0.0384634 7.61186e-05)
(-0.0006675 -0.0017528 0.00197935)
(0.000218112 -5.85448e-06 0.000193634)
(-0.0170626 0.0463054 0.00621443)
(0.00147282 -0.00129003 0.00641795)
(-0.00790522 0.059567 -0.00658565)
(0.000372271 -0.000512418 0.00315251)
(0.000420798 -0.000965346 0.00421173)
(-0.000235837 0.0138667 0.0160654)
(0.00491765 0.00144954 -0.0192972)
(-0.0125199 0.0669001 -0.010815)
(0.0859569 0.169141 -2.54525)
(-0.0146197 0.0654427 -0.00186018)
(-0.000220162 0.00470195 -0.000701695)
(0.0128197 0.039649 0.0438138)
(0.00933237 0.0341646 0.0410282)
(0.00530133 0.0325937 0.0400852)
(0.00904286 0.035823 0.0389922)
(0.0124341 -0.0363211 0.0149991)
(-0.275533 0.563571 -1.8372)
(0.0317699 0.0467877 0.0638428)
(0.0024608 0.0387821 0.0054787)
(0.0279011 0.0276865 0.0405543)
(0.0266783 0.194093 0.0157257)
(0.0585508 0.0617291 0.0497975)
(-0.00866565 0.0718206 -0.00862329)
(-0.025907 0.0535595 0.0303895)
(-0.0242001 0.0480315 0.0262604)
(-0.0252002 0.0424235 0.0213058)
(-0.000767368 0.0235015 0.00220364)
(-0.0166096 0.112261 0.0883765)
(-0.00342649 0.0168618 0.00245638)
(0.0172165 0.189043 0.017409)
(-0.00248249 0.0475608 0.0028716)
(0.0175939 0.0333204 0.00282363)
(0.0307734 0.200365 0.0169849)
(0.0221024 0.190057 0.0202933)
(0.00376498 0.039946 0.00115075)
(-6.94896e-05 0.00229988 -0.000681432)
(-0.0542117 0.105706 0.157414)
(-0.00974995 -0.0176479 0.0192984)
(-0.000376815 -0.000650705 0.00143203)
(-0.0074407 -0.0252974 -0.00395522)
(-0.0208983 0.0398686 0.0965043)
(-0.0520694 0.0795051 0.161181)
(-0.0211214 0.065007 0.110769)
(-0.0186929 0.0398876 0.105559)
(-0.014951 0.0169061 -0.00408605)
(-0.0110513 0.0473139 0.0879738)
(-0.0104416 -0.0238969 -0.0055432)
(-0.0452293 0.185787 -0.884698)
(-0.153798 0.264151 -1.15904)
(-0.127832 0.271483 -1.35558)
(-0.124796 0.196807 -1.16552)
(-0.0548554 0.106025 0.0138604)
(-0.0655138 0.110539 0.162349)
(0.0227125 0.0453408 0.0332037)
(0.024435 0.0449745 0.0344675)
(0.0828652 -0.0329713 -0.000128254)
(0.00236719 0.0720828 -0.0250279)
(0.0211603 0.0430928 0.0351266)
(-8.68745e-06 -1.64986e-05 3.43183e-06)
(-0.0220388 0.0719884 -0.206556)
(0.00209404 0.0487798 -0.00293328)
(0.0130098 0.0717168 0.0315458)
(-0.0116161 0.179764 0.0679804)
(-0.0147387 0.127778 0.0493103)
(-0.0113544 0.146951 0.0479171)
(-0.0140236 0.139434 0.0474688)
(0.00457848 0.0168447 0.00398349)
(0.034036 -0.0705947 0.0155519)
(0.0312691 -0.0708165 0.0144518)
(-5.03399e-05 -0.000695539 0.00080672)
(-0.0102679 0.053657 0.0608954)
(-0.00830171 0.0495906 0.0563968)
(-0.00168256 0.0396137 0.0410357)
(-0.00852608 0.0553218 0.0606607)
(-0.00021511 -0.000716784 0.000533467)
(0.000638193 -0.00123139 0.000463162)
(-0.000160551 -0.000279467 -4.76179e-05)
(1.25607e-05 -0.000342903 1.06265e-05)
(-0.000114938 -0.000334597 -5.4197e-05)
(-3.67055e-05 -0.000328112 -1.66247e-05)
(0.0302294 0.0561764 0.0424724)
(-0.00101911 0.0836361 0.0633587)
(-0.00563226 0.0722739 0.0565517)
(0.000696131 0.0852267 0.0561875)
(-0.00442601 0.0848405 0.0664209)
(0.000874436 0.000605155 -0.000165309)
(0.000485937 0.00153166 -0.000189883)
(0.00193434 0.033095 -0.000454113)
(0.000133895 0.00191701 -0.000533424)
(-0.00292433 -0.0179692 0.00832133)
(-0.00334427 -0.0145146 0.00579119)
(-8.89544e-05 -0.0174607 0.00871644)
(-0.00150357 -0.0173863 0.00843035)
(-0.00332784 -0.0207274 0.0126097)
(-0.00700209 -0.038471 0.0093946)
(-0.00272922 0.0564491 -0.00589646)
(0.00632789 0.044674 -0.00619424)
(-0.0054248 0.0564534 -0.00536324)
(0.0139124 -0.0477128 0.00817777)
(0.0236249 -0.070249 0.0017832)
(0.0192336 -0.0623613 0.00290781)
(0.0251252 -0.0703945 0.000966408)
(0.000460334 0.0131649 0.00860374)
(-0.00232292 0.0114809 0.00798665)
(0.0113439 0.0230565 -0.0029967)
(0.0107972 0.0233419 -0.00929488)
(0.0219218 0.023874 -0.0130643)
(-0.00865561 -0.00977226 0.00846117)
(-0.000923796 0.00379756 -0.00268438)
(0.000208362 0.00236023 -0.00174322)
(0.000941676 0.0516692 0.00179086)
(-0.00240416 -0.00635742 0.00374386)
(-0.00200057 -0.00858839 0.00307879)
(-0.00758351 -0.0124451 0.0271669)
(-0.0127692 -0.011233 0.0272942)
(-0.010668 -0.0174332 0.0265605)
(0.000900468 0.00670496 0.00572293)
(-0.00110974 0.00466969 0.00191142)
(-0.00922232 -0.0151199 0.029683)
(-0.000120301 0.00208508 -0.00102727)
(-0.000175684 0.000334838 0.000265358)
(-0.000136642 0.000857002 0.000368385)
(0.000862515 -0.00249626 0.00160641)
(0.108088 0.17352 0.0349043)
(0.0580502 0.142783 0.045581)
(-0.00114352 0.0172126 0.00356255)
(-0.0030629 0.0226312 0.00600473)
(-0.00150387 0.0235179 0.000874685)
(-0.00128293 -0.012316 0.00534075)
(-0.00178168 -0.0125457 0.00874083)
(-0.00184971 0.01242 0.00761125)
(9.69898e-06 8.53897e-05 0.000144881)
(-5.51313e-05 -0.0524499 -3.05294e-05)
(-0.000986934 -0.0481235 0.0121031)
(0.000850349 -0.0028451 0.00695521)
(-0.00518201 0.0926516 0.0529723)
(-0.00203451 0.0928489 0.0449438)
(-0.00327461 0.0901029 0.0464681)
(-5.18109e-05 -0.000310164 -0.00029619)
(-0.00317135 -0.00120532 -0.00304724)
(-0.00054179 -0.000471975 0.00130487)
(-0.00108823 0.0261778 -0.000226917)
(-0.00239865 0.0310241 0.00527541)
(0.00431177 0.0349419 0.00472332)
(0.000151374 -0.00253054 0.00175626)
(-0.000264489 0.0215195 -0.000889081)
(-0.0013942 0.0091777 -0.00351597)
(0.000825607 0.00258912 -0.00117655)
(-0.00853192 0.160345 -0.0623495)
(-0.00451975 0.00836442 0.0115959)
(0.0139563 0.156042 -0.0610428)
(-0.00289572 -0.00779376 0.0145556)
(-0.00108929 0.0319647 0.171022)
(-0.00452695 0.0244268 0.153553)
(-0.000274769 -0.000845131 0.000837493)
(-7.34806e-05 -0.00233783 -0.000257055)
(-0.00611447 -0.0185118 0.00885701)
(0.000232586 -0.00266067 0.000396972)
(-0.0557681 0.131875 -0.0220998)
(0.0278272 0.0413842 0.0486752)
(0.000116251 -0.000601457 0.000141044)
(-0.0226874 -0.0679006 -0.00276843)
(-0.0682059 0.106578 0.0624974)
(-0.0126428 0.353637 -0.25325)
(0.00181884 0.0125867 -0.00317223)
(-0.00687488 0.00800372 9.56088e-06)
(-0.000439756 0.00804808 -0.000522717)
(0.0215978 0.345075 -0.285466)
(-0.000131823 -0.00027239 -0.000176396)
(-0.00499252 0.055946 -0.241971)
(0.000893425 0.014245 0.0153415)
(-9.54086e-05 -0.001511 0.000479293)
(-0.000376909 0.0193679 0.0136361)
(-0.000256911 -0.00187533 0.001322)
(-0.0001214 -0.00125399 0.000466526)
(0.00207177 0.0203458 0.000426928)
(0.000944661 0.0176498 0.000260862)
(-0.0120931 0.0418358 0.00618669)
(-0.0147315 0.0461482 0.00866926)
(-0.0135337 0.0415313 0.00720891)
(-0.00881078 0.066087 -0.0142214)
(-0.0055864 0.0713434 -0.0142232)
(-0.00825508 0.0672192 -0.0113623)
(0.0791836 0.244704 -0.0878694)
(0.0866041 0.110471 0.142092)
(-0.00241913 -0.00104673 0.00581095)
(0.00232304 -0.00502899 0.00310584)
(0.00330376 -0.00126523 0.00257021)
(-0.00392934 -0.00584917 0.00363911)
(-0.00221918 -0.00347793 0.00131962)
(0.0242955 -0.100497 0.0135182)
(-0.00216898 0.0152078 0.012214)
(-0.000682604 0.000706346 0.000258787)
(-0.000344125 0.00161191 0.00120562)
(-0.0066589 -0.0133607 0.0123331)
(0.00296038 0.0210666 0.00144454)
(0.00498363 0.0277104 0.0109859)
(0.00874252 0.0477713 -0.00149188)
(0.00625786 0.0380085 -0.0111683)
(0.00436715 0.0247874 -0.00763957)
(0.00481793 0.0343502 -0.0104577)
(0.00882535 0.0435743 0.0125687)
(0.0434677 0.0562458 0.0320665)
(-0.00490555 -0.0109367 0.00275187)
(-0.00154757 0.0044528 0.000390665)
(-0.0125059 -0.020516 0.0184784)
(0.00162243 -0.00780449 0.00792145)
(0.000267454 0.0054233 0.00574555)
(-0.000831525 -0.00461636 4.27494e-05)
(0.0469917 0.0656696 0.0883526)
(-0.00879166 0.0403465 -0.0182898)
(0.0503306 0.0752988 0.0712952)
(0.0352613 0.0577635 0.0566217)
(-0.000895815 0.023369 0.00536142)
(0.0084515 0.0503027 -0.0180451)
(0.0092472 -0.0232702 0.000821215)
(-0.00172979 -0.0158201 0.00486789)
(0.000113442 -0.000908037 -0.00023195)
(0.000334078 0.0107 -0.00069369)
(0.000361546 0.00636328 -0.00104807)
(-0.000360004 -0.000772835 0.00411103)
(0.0022135 -0.00570968 0.00373039)
(0.000511623 -0.000190468 0.00052315)
(0.000545137 0.000997668 -0.000239989)
(-0.0104796 -0.0101122 0.0254031)
(0.000964546 0.0283893 0.00096625)
(-0.000173421 -0.000324937 -0.000129872)
(0.00150227 0.00961852 0.00301916)
(0.00289245 0.0159102 0.010697)
(0.00295678 0.0259698 0.00175554)
(0.00273221 0.011544 0.00544498)
(-0.00435375 0.00640492 0.00789108)
(0.00201663 0.0951144 0.0564129)
(-0.00364534 0.0526348 0.0322185)
(0.00175057 0.0921843 0.0584436)
(0.00347451 0.0927924 0.0603287)
(0.000656652 0.0176367 0.0558299)
(-0.0310701 -0.106783 0.0216369)
(0.00235438 0.000927704 0.000538714)
(-0.0453241 -0.112103 0.0173913)
(-0.000325903 0.0109854 0.00647023)
(0.003643 0.0100084 0.045574)
(-0.0324716 0.020172 0.00718272)
(-0.000410561 -0.0127299 -0.0135395)
(-0.0284431 -0.0961692 -0.00616811)
(0.00150177 0.024054 -0.00168819)
(-6.71112e-05 -0.00180263 0.000458566)
(-0.0059126 0.00113661 0.00229729)
(-4.41499e-05 -0.010489 0.00425151)
(0.00146197 -0.00306604 0.0019813)
(0.0026337 -0.00028469 -0.00178717)
(-0.0548111 0.346206 -1.72971)
(0.03219 -0.0952299 0.0145092)
(-0.000644986 -0.000759532 0.00234762)
(-0.000270865 -0.00137831 0.00158814)
(0.000338326 -0.00241217 0.00142006)
(0.00150895 0.0606687 0.00657245)
(-0.0512409 0.0845335 0.129554)
(0.00991376 0.068891 0.00648001)
(0.00861458 0.094806 0.00576177)
(-0.0016044 0.00786353 0.00705382)
(-0.0012149 0.00770753 0.00805554)
(0.0036717 -0.0164429 0.0257175)
(0.00114662 -0.00133588 0.0044132)
(0.00396875 0.0236893 0.00173281)
(0.00484359 -0.00375678 0.00607673)
(0.00641409 -0.00450349 0.0102635)
(0.00284391 -0.00137845 0.00557473)
(0.00795135 0.00758736 0.0116617)
(0.00972274 0.0513612 0.00860565)
(-0.000104857 -0.000918581 0.00057059)
(0.0955059 0.165768 -0.176109)
(-0.000136511 -0.00465186 -0.000241692)
(-0.000216107 -0.00108286 0.00078914)
(-0.000260353 -0.00145454 0.000856588)
(0.000141346 -0.000881691 0.000232161)
(-0.00259789 0.00762311 0.00704413)
(6.08762e-05 -0.00115263 0.000246057)
(-0.00724331 0.032092 0.0018655)
(-0.03529 -0.0888746 0.0156996)
(-0.00237073 0.00239663 0.00354063)
(0.00479165 -0.00541377 0.00505792)
(-0.00425155 0.00820866 0.00636088)
(0.0022794 0.00661287 0.0276274)
(-0.00144167 0.000872667 0.000854148)
(-0.013945 0.0358965 0.000450133)
(-0.011339 0.0318218 -0.0032172)
(0.0024873 0.00961753 -0.00294029)
(-0.00352983 -0.0492613 -0.00170001)
(0.000195594 -0.00463056 0.002187)
(-0.00608546 0.034192 0.000644557)
(0.04781 -0.0142272 -0.0135089)
(-0.0316435 0.0865118 -0.0110285)
(-0.00879596 -0.062496 -0.0192193)
(-0.00545054 -0.00424372 -0.00151621)
(-0.00246999 -0.000669389 -0.0017417)
(-0.00158291 -0.00491652 -0.00126861)
(-0.00252939 -0.00255405 -0.00210699)
(-0.000169973 -0.00031472 -0.000225339)
(-0.00130908 0.00599761 -0.000204563)
(-0.062941 0.0584378 0.0678735)
(0.0073458 -0.0013583 0.00933751)
(-0.0352428 -0.0837545 0.00249453)
(-0.00123482 0.0103731 -0.00653872)
(0.00358192 0.00705662 -0.00932769)
(-0.000843906 -0.00463782 -0.0004596)
(-0.000367168 0.00527343 -0.000853781)
(0.00233394 0.0646661 0.107403)
(-0.0010828 -0.00301163 0.00101773)
(-0.00384552 -0.00593211 0.00358798)
(-0.00201511 0.0123126 -0.00579185)
(-0.0902406 0.0864055 0.0873069)
(0.00249767 -0.00397585 0.00846143)
(0.00627195 -0.00123393 0.00622292)
(-0.00428309 0.0174034 0.0716233)
(-0.00118878 0.00131617 0.00312049)
(-7.65719e-05 -0.000287108 0.00296291)
(-0.0102144 -0.0288886 0.016501)
(0.00920641 -0.00113612 0.0102266)
(0.00236911 0.00414692 0.00231075)
(-0.047293 0.0497348 0.0612953)
(-0.0040156 0.0122074 0.02609)
(-0.00257296 -0.00020991 0.00389811)
(-0.0195334 0.0925091 0.273974)
(-0.0242816 0.0371893 -0.00302016)
(-0.0547956 0.0561286 0.038609)
(-0.0188803 0.0508472 0.187461)
(-1.04651e-05 -0.000356291 -0.000118108)
(-0.00509975 0.00682371 0.00669005)
(0.00306243 0.0773983 -0.0384743)
(0.0662257 0.110468 0.0942015)
(0.00982104 0.0949652 -0.0391544)
(-0.00534672 0.0117218 0.0226085)
(-0.0797344 0.112015 -0.00902294)
(0.0528437 0.0725047 0.0482504)
(-0.000116826 0.000718688 -0.00218271)
(0.00615466 0.0793829 -0.0391505)
(-0.00525669 -0.0686515 0.00827186)
(0.0490925 0.0673464 0.0692452)
(-9.02417e-05 -0.00357547 -0.000878344)
(-0.000280504 -0.00724386 0.000371154)
(0.000554205 -0.00446238 0.00230675)
(0.049399 0.0905192 0.0725005)
(0.00822286 -0.0261428 0.0181989)
(0.0510338 0.0634442 0.0455136)
(-0.0571868 0.0991083 0.138626)
(-0.0417461 0.0929969 0.138059)
(-0.0638131 0.0955081 0.141731)
(0.0589323 0.0488308 0.0665002)
(0.000764918 -0.00137117 0.00748238)
(-0.00325841 -0.00678439 0.00264146)
(0.00181735 -0.00205745 0.00593359)
(0.000472979 0.000164027 0.00639116)
(-0.000356997 -0.000679472 0.00927317)
(0.000803429 -0.00145144 0.00932569)
(0.0178106 0.130078 -0.00208161)
(-0.00958693 0.0172162 0.063561)
(0.0121549 0.0426593 0.0167399)
(-0.000147342 -0.00256294 0.00133295)
(-0.0600783 0.226775 -0.0867131)
(-0.00718309 -0.0115419 0.00319046)
(-0.0643518 0.0158928 0.040036)
(-0.0147796 0.0233864 0.0814281)
(-0.0794298 -0.012944 0.0477511)
(-0.060633 -0.010893 0.0310141)
(-8.67741e-05 -0.000624781 0.000140155)
(0.00940664 0.078059 -0.0370054)
(0.0203994 -0.0360104 0.0461097)
(-9.02427e-05 -0.000757337 0.000204465)
(-0.0724428 0.226596 -0.148795)
(-0.0100968 0.0233691 0.0153747)
(-0.0127946 0.0789408 -0.0163413)
(-0.00849975 0.0704376 -0.0114266)
(-0.0144606 0.0654209 -0.0163435)
(-0.0092344 0.07063 -0.0145062)
(0.000939115 0.0289362 0.000820186)
(-0.031031 0.0636716 -0.0454765)
(0.0304723 0.0548924 0.0174643)
(-0.0109978 0.0468306 -0.00844198)
(-0.0135211 0.0572455 -0.00539361)
(-0.0358209 0.0986478 -0.0547179)
(0.0164886 0.0136192 -0.00664788)
(0.0219164 0.0140775 -0.00637231)
(-0.00315702 -0.00279892 0.00440813)
(0.00172977 -0.00386895 0.00156237)
(0.0153746 0.0120276 -0.00630615)
(-0.00163962 0.173307 0.0409172)
(0.00196311 0.112533 0.0218046)
(0.00167695 -0.00331947 -0.000885485)
(0.000136732 0.0120535 0.00859388)
(0.120685 0.223989 -0.20412)
(0.101831 0.230076 -0.201953)
(0.00331959 -0.0307783 0.00585579)
(-0.00953595 0.0150142 -0.0116165)
(-0.00545365 0.00651538 -0.00839124)
(-0.00277386 -0.000707209 0.000959763)
(-0.00529182 0.0115147 -0.0108125)
(-7.45198e-05 0.000567447 0.000137055)
(0.00469815 0.0674454 0.0518064)
(0.00642868 0.0223345 0.0299372)
(0.00741647 0.0235749 0.0320718)
(0.00207361 0.00977034 0.00921898)
(0.00721716 0.0250909 0.034378)
(0.0014943 -0.0240534 0.0152027)
(-0.233573 0.175778 -0.621163)
(0.000448084 0.0109514 0.00853716)
(0.00126289 0.0107119 0.00955927)
(-0.00621283 0.0134401 0.0242809)
(0.0279429 0.0426429 0.0142186)
(-0.000112366 0.000535708 7.13646e-05)
(0.0117474 0.0987574 0.0242282)
(0.0182216 0.123744 0.0270833)
(0.0152214 0.111893 0.0270862)
(0.0187536 0.116361 0.0277279)
(-0.00067492 0.0116506 0.0674486)
(-8.86286e-05 -0.00220022 0.00130512)
(-0.00162001 -0.00709633 0.00392629)
(0.00118858 0.0100156 0.0129246)
(-0.00159003 -0.00675181 0.00199851)
(0.00325476 0.175809 0.0552853)
(0.00562016 0.153826 0.0432415)
(0.000655536 -0.0160431 0.0116901)
(-0.00165153 -0.00275683 0.00448697)
(0.000333826 0.000459772 0.00550581)
(0.000787229 0.0184676 -0.00322899)
(-0.000710415 -0.00453121 0.00128124)
(0.0447978 0.157853 -0.0252327)
(0.0259415 0.122164 -0.0211138)
(0.0170056 0.118454 -0.0224823)
(0.0261651 0.12247 -0.0176009)
(0.000350159 -0.00176764 0.000717373)
(-0.130437 0.153767 -0.0598967)
(0.0274616 0.0556301 0.0378594)
(0.0270841 0.0549421 0.0369253)
(0.0333664 0.0616542 0.0386298)
(0.0313023 0.0575441 0.0371421)
(-0.000918504 -0.0294073 0.0332802)
(0.00282186 -0.0301466 0.0219922)
(-0.0250478 0.0283953 0.00923478)
(-0.017612 0.0201596 0.00712103)
(0.000169282 -0.0107862 0.000496049)
(-0.00183578 -0.00562749 0.00202028)
(0.000708346 -0.00570312 0.000697506)
(0.00158076 0.0590632 0.00196871)
(0.0210021 0.0126331 0.0375278)
(0.0288784 0.0186833 0.0474188)
(0.0307915 0.00841348 0.0275669)
(0.0234925 0.00775465 0.0307944)
(0.0026482 0.0242512 0.00210303)
(0.0360166 0.0904129 -0.0246682)
(-0.00349607 -0.0131501 0.00368224)
(-0.00940093 -0.025157 0.0135804)
(-0.00307373 -0.0261049 0.00889198)
(-0.0100196 -0.0211607 0.00974358)
(-0.0771756 0.155955 -2.02118)
(0.000585182 -0.00584123 0.00325193)
(-0.012127 -0.00911399 0.00602579)