/*--------------------------------*- C++ -*----------------------------------*\
| =========                 |                                                 |
| \\      /  F ield         | OpenFOAM: The Open Source CFD Toolbox           |
|  \\    /   O peration     | Version:  5.0                                   |
|   \\  /    A nd           | Web:      www.OpenFOAM.org                      |
|    \\/     M anipulation  |                                                 |
\*---------------------------------------------------------------------------*/
FoamFile
{
    version     2.0;
    format      ascii;
    class       volVectorField;
    location    "1";
    object      wallShearStress;
}
// * * * * * * * * * * * * * * * * * * * * * * * * * * * * * * * * * * * * * //

dimensions      [0 2 -2 0 0 0 0];

internalField   uniform (0 0 0);

boundaryField
{
    walls
    {
        type            calculated;
        value           nonuniform List<vector> 
100144
(
(-0.00751742 -0.02623 -0.00383631)
(0.000452738 -0.00383605 0.00835488)
(-8.01016e-06 1.8579e-05 2.97528e-06)
(-0.00187495 -0.0144172 0.00321669)
(0.0026633 -0.0317444 0.000573413)
(0.000421378 -0.00521854 -0.00155092)
(8.25078e-05 -0.0425898 0.0118909)
(-0.00135945 -0.00192371 -0.0010085)
(-0.00108983 -0.00560123 0.000303094)
(-0.00725105 -0.0272505 -0.000350647)
(-0.00518024 -0.0203445 0.00781212)
(-0.00321964 -0.0235605 -0.00124956)
(0.00498982 -0.0191816 -0.00095905)
(0.00461515 -0.0156653 0.00116043)
(-0.00152896 -0.0262883 0.00034337)
(0.000345339 0.00085608 -0.000448032)
(-0.00307276 -0.0115493 0.0170827)
(0.00299423 -0.0298649 0.00189997)
(-0.00107102 -0.0275391 -0.00318745)
(-6.08694e-05 -0.0023601 -0.000705098)
(-0.00347445 -0.0145044 0.00147626)
(-0.000758849 -0.0208613 0.000297507)
(-0.000830916 -0.014983 0.00368645)
(-0.000175622 -0.0253923 -0.0020086)
(0.000151207 0.0033382 0.0026996)
(-0.000238077 0.00297729 0.00293955)
(-0.00147789 0.00311331 0.00217756)
(0.00143091 -0.0317354 -0.00182421)
(-0.000478149 -0.0239973 -0.0019692)
(-0.00180387 -0.00951053 -0.00111832)
(-0.00084245 -0.00863647 -0.00136302)
(0.00133876 -0.0217141 0.00533749)
(0.00424351 -0.0163257 -0.0299795)
(-0.000269323 -0.0173997 -0.00157417)
(0.000741033 -0.00178729 -0.0012712)
(-3.35307e-05 -0.00396313 -0.00130885)
(0.000516801 -0.00337262 -0.000908194)
(-3.93282e-06 8.0714e-06 -4.77746e-06)
(0.00183348 -0.0142352 -0.00184069)
(0.00024221 -0.00801267 -0.0015792)
(-5.4302e-05 -0.00303787 -0.00280814)
(-0.00382241 -0.0162594 0.000936796)
(-0.00102417 -0.0195292 0.000952734)
(0.00664177 -0.0539221 0.00173831)
(0.00433912 -0.0176438 0.00248289)
(-0.00839709 -0.0104786 -0.00423699)
(-0.00188574 -0.0176995 -0.00730305)
(0.00153601 -0.0146402 -0.00620824)
(0.00337677 -0.0144657 -0.00606298)
(0.0047813 -0.0191418 -0.00422496)
(-0.0064356 -0.00949027 -0.00372812)
(-6.5146e-06 8.8492e-05 8.55988e-05)
(0.00191053 -0.0263426 0.0027213)
(-0.000573332 -0.00271182 -0.00137444)
(0.0112035 -0.0232662 0.00695532)
(0.00787127 -0.0204374 0.00848106)
(0.000960041 -0.0228851 0.00728638)
(0.0103669 -0.0221186 0.00981928)
(0.00454258 -0.0179731 0.00725388)
(0.00965421 -0.0287655 0.0101667)
(0.0549896 -0.0958914 -0.0544554)
(-0.000401034 -0.00131815 0.0011567)
(-0.000192075 -0.00152456 5.1975e-05)
(-0.000234762 -0.000873382 0.00137952)
(-0.000515501 -0.00328695 -0.00116852)
(-0.00669292 -0.0129262 0.0110078)
(0.00201952 -0.0144542 -0.00153857)
(-0.00441423 -0.0568196 0.00536468)
(0.00358532 -0.0152439 0.00094351)
(0.000265839 -0.00816554 -1.82331e-05)
(0.0988169 -0.117023 0.380857)
(0.0890785 -0.10528 0.353816)
(0.0812882 -0.0997118 0.326111)
(-0.00529397 -0.0224875 0.00234776)
(0.0878086 -0.0973706 0.346368)
(3.56538e-05 0.00100564 -7.59068e-05)
(0.000245326 0.000203339 0.000793811)
(0.0105995 -0.0825389 0.0151268)
(-0.00732695 -0.0642439 -0.00557483)
(-0.00316495 -0.0526836 -0.00227652)
(-0.00638578 -0.0673358 -0.00334939)
(-0.00061558 -0.00373047 -0.0144182)
(0.000551667 0.000203383 -0.000861162)
(-0.000598861 -0.00453114 -0.000464371)
(0.0122873 -0.0266804 0.00709238)
(0.0112267 -0.0271095 0.00291688)
(-7.99757e-05 -0.000561224 0.000352302)
(-0.000315136 -0.00059815 0.000369323)
(-3.60465e-05 0.000218415 4.61187e-05)
(-0.00196763 -0.0196716 0.0118208)
(-0.00162062 -0.060885 -0.00799306)
(0.00262709 -0.0592867 -0.00954716)
(0.00402687 -0.05773 -0.00789513)
(0.00328457 -0.0216109 0.00149386)
(-0.00313643 -0.0619831 -0.00856814)
(0.00013912 -0.0116334 0.00164755)
(0.0074893 -0.0692083 0.0138022)
(0.00933508 -0.0721077 0.0164891)
(0.00178338 0.00217664 -0.000216218)
(-0.00326801 -0.0112139 -0.00274029)
(0.00104527 -0.066999 0.0107758)
(0.00747372 -0.0238011 0.00438359)
(0.00153638 -0.00130739 -0.000320596)
(0.00117249 -0.000466963 0.000110659)
(0.00159901 -0.00262216 -8.39152e-05)
(0.00172926 -0.00180057 -0.000509982)
(0.00322038 -0.00131503 0.000473568)
(-0.283291 -0.194787 0.894044)
(0.000393982 -0.00140399 0.00138377)
(0.00125347 -0.0006383 -3.36857e-05)
(-0.000202819 -0.00304582 0.00227257)
(0.000189554 -0.00380299 -0.00198328)
(-0.00445549 -0.0115962 0.00633041)
(-0.0161044 -0.0253672 0.012056)
(-0.00411779 -0.0187372 0.00994481)
(-0.000769737 -0.00607724 0.00213523)
(-0.000366793 -0.0286805 0.00783377)
(-0.00075512 -0.0179906 -0.0012641)
(-5.62591e-05 -0.00731138 0.0011797)
(-0.000554068 -0.0623468 0.0108336)
(-0.0031886 -0.0771428 0.0123758)
(-0.00822471 -0.0803011 0.0180584)
(-0.00996025 -0.0747183 0.0131532)
(1.85265e-06 -0.000802722 -0.000451387)
(0.0421451 -0.0290218 0.136453)
(-2.39524e-06 -0.00881336 0.00165189)
(0.000718585 0.0018052 0.00121345)
(0.00147785 0.00101786 0.00200219)
(0.00153968 0.0025072 2.75457e-06)
(0.00155565 0.0018129 0.000355688)
(0.0011643 -0.00625279 0.000746249)
(9.68544e-05 0.00118332 -1.14729e-07)
(-3.65797e-05 0.000848996 6.4053e-05)
(-0.000547029 -0.00630235 -0.000544926)
(3.95018e-05 8.78678e-05 0.000211365)
(-0.00145171 -0.00608165 0.000852178)
(0.000475038 -0.00686178 -0.00256571)
(-0.265137 -0.174731 0.864978)
(-0.303082 -0.187105 0.895423)
(-0.00270389 -0.00498072 0.00455373)
(9.08628e-05 -0.000394459 -0.000571495)
(-0.0169445 -0.0802211 -0.00271626)
(-0.0225859 -0.083899 -0.00777538)
(-0.0192398 -0.0807517 -0.00233239)
(-0.00587719 -0.00741641 0.00257836)
(-0.0172371 -0.0807964 -0.00466632)
(-0.00496516 -0.0100251 0.00346579)
(-3.30191e-06 5.66629e-05 -4.83528e-05)
(-0.00208179 -0.00939355 -0.000413747)
(-4.79004e-05 -0.00776926 -0.000174016)
(-0.00170365 -0.00606737 -0.00242588)
(-8.86667e-05 -0.000906431 -0.00115228)
(0.00357516 -0.0197415 0.0154686)
(-0.00314134 -0.0131422 0.00549103)
(0.000546213 -0.0035509 -0.00305975)
(0.000141636 -0.0026521 -0.00197055)
(-0.000416903 0.000329972 0.00123872)
(0.000822367 -0.00158875 -0.00120855)
(-0.00317448 -0.00555683 0.0020728)
(-0.00408389 -0.00800945 0.00159038)
(-0.00754618 -0.0144025 0.0109233)
(-2.27534e-05 -0.000476128 -0.000357008)
(0.0001037 -0.00235252 0.00113423)
(-0.000123857 0.00023034 0.000853431)
(0.00718893 -0.0243704 0.0140877)
(-7.91557e-05 0.000702578 0.000748152)
(-0.000924936 0.00229099 -0.00232212)
(-0.00928709 -0.188238 1.46592)
(0.00101484 -0.00345815 -0.00151974)
(0.0080859 -0.194258 1.45779)
(-0.00161176 -0.178306 1.4527)
(-0.0938795 -0.163199 1.57605)
(-0.000468961 0.0011311 0.00154896)
(-0.000243949 0.000440398 -0.000227417)
(0.0012352 -0.0409219 0.00471539)
(0.00761707 -0.0231841 0.0215453)
(0.0254051 -0.0401633 -0.0277527)
(0.0236171 -0.0429624 -0.0244291)
(-0.00291219 -0.0173496 -0.0127251)
(0.0228344 -0.0443776 -0.0269704)
(-0.000655012 -0.00689793 -0.00205523)
(-0.00110288 -0.0190909 -0.0118272)
(0.00187377 -0.0178056 -0.0129384)
(0.00158012 -0.00420416 0.00016423)
(-0.285959 -0.159193 0.901367)
(0.000766895 0.00138501 -0.00193832)
(-7.13163e-05 0.0013519 -0.00154189)
(-0.0251041 -0.256013 0.895161)
(-0.00029154 0.000324312 0.00166337)
(0.000226969 9.97105e-05 0.00205879)
(-0.00074536 0.000405677 0.00172412)
(-0.00014971 -0.00198083 0.00175025)
(-0.000740902 -0.00691382 -0.00383894)
(0.000596579 -0.00634757 -0.00108216)
(-3.27373e-05 0.000333211 0.00051304)
(6.17412e-06 0.000740667 0.00151173)
(0.000400437 -0.0181235 -0.0126046)
(0.00946652 -0.0343542 -0.0193741)
(-0.00406587 -0.019177 -0.0206992)
(-0.0128516 -0.0547449 -0.040628)
(-0.00491649 -0.0244577 0.0229067)
(-0.00683268 -0.0233255 0.0269449)
(0.0173608 -0.0433142 0.00613945)
(0.0198707 -0.042737 0.00650575)
(0.0195538 -0.0433883 0.00654002)
(0.0166696 -0.0448949 0.00757685)
(1.74897e-05 -0.00222616 0.000819847)
(0.0122084 -0.0361908 -0.023597)
(-0.000796715 -0.000664217 4.63523e-05)
(-6.59378e-05 0.00115624 0.00211483)
(-0.000396857 0.000683309 0.00263678)
(-5.88069e-05 0.000501402 0.00152095)
(-0.000554697 -0.00446237 -0.000593995)
(0.00109646 -0.00272329 0.00095113)
(0.000375968 -0.000901682 0.000407168)
(-0.000257753 -0.00456898 -0.000836887)
(0.00189008 -0.0227362 0.000280512)
(0.000309025 -0.00259587 -0.00104063)
(-0.00569699 -0.0145593 0.00410995)
(-0.00524221 -0.0096013 0.00193913)
(-0.00303717 -0.0232052 -0.0018023)
(-0.00299047 -0.0152127 -0.000134262)
(-0.00381068 -0.0215828 -0.00141194)
(-0.000891867 -0.00690415 0.000135269)
(-2.73171e-05 0.000117768 0.00023913)
(-0.000206344 -0.000338149 0.000818958)
(-0.000774235 -0.00876803 -0.00141449)
(0.00146225 -0.0156692 0.00171573)
(0.00825386 -0.00744747 -0.00445025)
(-0.00153331 -0.00155814 -0.00258181)
(-0.000950669 -0.00775511 -0.00152352)
(-0.00135601 -0.00209274 -0.00349098)
(0.00183625 -0.00514275 -8.34835e-05)
(0.00247685 -0.00578827 0.000801039)
(0.00248487 -0.0221242 0.0106483)
(0.00589968 -0.00402032 0.00175384)
(0.00133225 -0.00411184 -0.00241425)
(-9.39853e-05 -0.00334324 -0.00157362)
(-0.0147415 -0.0166837 -0.0126597)
(-0.000108693 -0.00287842 -0.000954921)
(-0.000184312 0.00072693 0.00155516)
(-0.000891325 -0.00105471 0.00166861)
(2.06415e-05 7.82112e-05 0.000112748)
(-0.0152231 -0.0310262 -0.00550991)
(-0.0135922 -0.0267525 -0.00460512)
(-0.0156512 -0.0313713 -0.00564297)
(-0.0152867 -0.0308661 -0.00323272)
(0.00172108 -0.00363534 0.00229962)
(0.0036505 -0.00474049 0.000741539)
(-0.000377845 -0.000984188 0.0010111)
(-0.000111035 0.000445399 0.000298478)
(-0.00501992 -0.00698577 0.00141394)
(-0.000152775 6.25185e-05 -0.000196181)
(-0.000554161 -0.012122 -0.0133825)
(0.00661639 0.0151388 4.08494e-05)
(0.00432532 -0.0053509 0.00367846)
(0.00411169 -0.00422857 0.00408788)
(0.00484727 -0.00535488 0.00253603)
(0.00107304 -0.0150766 0.0104077)
(-0.000229315 -0.00249841 0.00214631)
(-0.000220059 -0.00280391 0.00020029)
(-0.000736862 -0.0185044 0.00579542)
(0.000466029 -0.00478075 -0.00349161)
(-2.0489e-06 1.33379e-06 -3.18322e-07)
(0.000746524 0.000914645 0.000301791)
(0.00137355 -0.00575115 -0.00296942)
(0.000410339 -0.00820981 -0.00264615)
(0.00621625 -0.0219237 -0.0035873)
(0.00118323 -0.0102894 -0.000752628)
(0.00205461 -0.00996286 -0.000232159)
(0.00270818 -0.0109831 -0.000549901)
(-0.00888516 -0.0219533 -0.0214463)
(-0.00434325 -0.00908529 -0.00773012)
(-0.00884906 -0.0247288 -0.00676741)
(-0.0048412 -0.0106765 -0.00466769)
(-0.00349494 -0.00944792 -0.00440002)
(-0.000173432 -0.00358666 -0.00174352)
(-0.000939669 -0.00860806 -0.00287934)
(-0.000690823 -0.00282049 -0.00113976)
(0.0013068 0.00146087 0.000325784)
(-0.000959299 0.00211255 -0.00210521)
(-0.000861361 0.00339815 -0.00260515)
(-0.000354219 0.00146067 -0.0012854)
(-5.78297e-05 -0.00114022 -0.000494556)
(0.000610901 -0.0598236 0.0133235)
(-0.00607719 -0.0729843 0.0144134)
(0.00214321 -0.0638468 0.0152711)
(-0.0122483 -0.0258566 -0.00503835)
(-0.0109744 -0.0242622 -0.00660073)
(-0.00559484 0.0102381 -0.00668566)
(-0.0121872 -0.0266764 -0.00575812)
(-0.011589 -0.0238687 -0.00579591)
(0.000508534 -0.00861132 0.00159471)
(-0.0005588 -0.000250208 -0.000117674)
(-0.00440332 -0.016732 -0.00305616)
(-0.000550757 -0.000825266 -0.000234844)
(-1.28599e-06 1.3647e-06 7.83131e-07)
(0.000511049 -0.000485675 -0.000222419)
(1.30777e-05 -0.0165746 -0.00468516)
(0.00162744 -0.00593822 -0.00363328)
(-0.0165328 -0.039828 0.00473918)
(0.000119996 -0.000165058 -0.000128464)
(-0.00989273 -0.0359091 0.0024568)
(-0.0132142 -0.0388216 0.00276586)
(-0.00181579 -0.00860503 -0.000713934)
(-0.000123398 -0.00352337 -4.30116e-05)
(0.00404979 -0.0218668 0.000616983)
(0.000606212 -0.00462793 0.000715339)
(-0.000812753 -0.00791839 -0.00690565)
(-0.00105543 -0.00510363 -0.00422828)
(-0.00127815 -0.00510058 -0.00479232)
(0.000283167 -0.00230413 6.34526e-05)
(-0.000968823 0.00472608 0.00503981)
(0.000160587 0.00299237 0.00798741)
(-0.00314677 0.00223224 0.00867689)
(-9.25915e-05 -0.000256162 3.05578e-05)
(-0.000991329 0.00383112 0.00630648)
(0.000593319 -0.0513897 -0.00930054)
(-0.00245282 -0.0578792 -0.00817109)
(0.00056083 -0.0591439 -0.00973938)
(0.00288042 -0.0517904 -0.0073806)
(0.00839708 -0.0214596 0.0118956)
(0.00609665 -0.0145838 -0.0291523)
(-0.00056409 -0.00337595 0.00161882)
(0.000766326 -0.00198958 0.00149383)
(-0.000318868 -0.00188771 0.000706971)
(-0.00019673 -0.0011952 0.00117756)
(0.00023389 -0.00044127 4.46429e-05)
(0.00729671 -0.0207132 0.0128414)
(0.00489814 -0.0230956 0.0193735)
(0.00980617 -0.0558387 0.0377989)
(0.00729495 -0.0427915 -0.111595)
(-0.00098065 -0.0160578 0.00165917)
(0.00516967 -0.0588388 -0.0657371)
(0.00764412 -0.00661227 -0.00669943)
(0.0108338 -0.00395269 -0.00766936)
(0.000816205 -0.00407729 0.000899813)
(0.00449826 -0.04672 -0.11237)
(0.000289683 0.000129 4.03558e-07)
(0.0101172 -0.026874 -0.0727605)
(0.00125537 -0.0120757 0.000947468)
(-0.000221171 -0.000693398 0.00064719)
(0.00146385 -0.045504 -0.116615)
(-0.000413011 -0.00351648 0.000621924)
(-0.000350351 -0.00371532 -0.000573388)
(0.0080477 -0.0588525 0.0219154)
(0.0113215 -0.0407355 0.0181105)
(-0.0233023 -0.0582392 -0.00361699)
(-0.0220498 -0.0556416 0.000141165)
(0.000750523 -0.00282354 0.00107262)
(0.00329338 -0.0123994 -0.00961323)
(0.000163986 -0.0026853 0.00217086)
(-1.51107e-05 -0.00288272 0.00198455)
(-0.000238485 -0.00130993 0.00169663)
(0.000472388 -0.00565632 -0.00123773)
(-0.000828858 -0.00637123 -0.00281733)
(2.70339e-05 -0.000110404 -0.000240552)
(-0.00113395 -0.008858 -0.00620563)
(-0.00123796 -0.00478173 -0.00369418)
(0.00180488 -0.00638174 -0.0065649)
(-0.00118587 -0.00441517 -0.00305832)
(-0.000943509 -0.00481237 -0.00406353)
(4.47964e-06 -9.24442e-06 0.000131861)
(-0.000331322 -0.00953157 0.00589071)
(-0.00574694 -0.0100432 -0.00164598)
(0.00250347 -0.0370291 0.0168938)
(8.3693e-05 -0.000388856 -0.000429641)
(9.71414e-07 3.77291e-05 1.13559e-05)
(0.299555 -0.286208 1.0319)
(0.28276 -0.273557 0.992192)
(-0.00209416 -0.00680106 0.00251773)
(0.00119852 -0.0086403 0.000578211)
(-0.000771726 -0.00236585 0.000532365)
(0.000783813 -0.0047222 6.86876e-05)
(0.0013507 -0.00811047 -0.000433157)
(0.0010098 -0.00943547 0.000880057)
(-3.04195e-05 0.000723289 -0.00047478)
(-0.00777873 -0.0547893 0.00909762)
(-0.00947327 -0.0528899 0.0106696)
(0.000328099 -0.0372713 0.00723376)
(-0.00516608 -0.0535921 0.00752626)
(-0.00305719 -0.00934663 0.0102872)
(0.00303962 0.00247798 0.000130163)
(0.00462562 -0.0113603 -0.00108281)
(0.00136466 -0.00132842 0.00543468)
(0.0105308 -0.0699233 0.017806)
(0.00028835 -0.000376427 0.00209993)
(0.000308629 -0.000838738 0.00306807)
(0.000198209 -0.00191779 -0.00272117)
(-0.000426078 -0.000650342 0.00102662)
(0.0200107 -0.0720497 0.0321838)
(0.296177 -0.298498 1.27209)
(0.0171882 -0.0667582 0.00939891)
(0.000385712 -0.00383503 0.000280532)
(-0.00220242 -0.0504508 -0.00321857)
(-0.000853627 -0.0423066 -0.00424127)
(-0.00286108 -0.0389543 -0.00307077)
(-0.000480357 -0.0404837 -0.00427816)
(0.00782544 -0.0184778 0.006753)
(0.271528 -0.309767 0.951409)
(-0.00938798 -0.03747 -0.0278961)
(-0.000905087 -0.0074233 -0.00120211)
(-0.00454569 -0.0164026 -0.0243494)
(-0.000901694 -0.0492885 -0.00602319)
(-0.0160484 -0.0247585 -0.0165087)
(0.0112783 -0.0791335 0.0231052)
(-0.0149839 -0.0644426 0.00156967)
(-0.0107019 -0.0635458 0.00662386)
(-0.0128731 -0.0678034 0.00671412)
(0.00035843 -0.00727399 -0.000500412)
(-0.00860275 -0.0859869 -0.0285132)
(0.017317 -0.0412725 -0.0108684)
(-0.00249155 -0.0506268 -0.00755697)
(0.00125614 -0.0140642 -0.000398365)
(-0.00537058 -0.00987532 -0.000383862)
(-0.00488496 -0.0458235 -0.00681401)
(-0.00322191 -0.0474745 -0.0076677)
(0.000916931 -0.0188979 0.00145968)
(-3.28618e-05 -0.0035379 0.000567361)
(0.0176915 -0.0561074 -0.161863)
(-0.0100668 -0.0161864 0.0130271)
(-0.00694772 -0.0165464 0.0111029)
(-0.000111727 -0.000384794 -1.88064e-05)
(-0.00116612 -0.00176549 -0.00229364)
(0.00103618 -0.00297676 -0.00421699)
(-0.00180766 -0.0110171 -0.00628154)
(-0.0021474 -0.00447115 -0.00313958)
(-0.0105229 -0.0244214 -0.00635853)
(0.00378096 -0.0225747 -0.0289372)
(-6.02556e-05 -0.00040071 -2.12042e-05)
(0.0534126 -0.129056 0.546259)
(0.102924 -0.175094 0.635085)
(0.109769 -0.166009 0.716118)
(0.103234 -0.171103 0.648924)
(0.00614852 -0.0206 -0.00290658)
(0.031353 -0.0529204 -0.14357)
(-0.00419166 -0.00471569 -0.00456013)
(-0.00498761 -0.00516876 -0.00518322)
(0.00181428 -0.00446351 0.00166022)
(-0.0126488 -0.0396697 0.00753899)
(-0.00346218 -0.00517481 -0.00597051)
(-3.52127e-07 -6.31757e-07 -4.24847e-07)
(0.0268095 -0.0216301 0.101994)
(0.000331874 -0.0103873 0.00061257)
(-0.0088049 -0.0631299 0.0143063)
(0.004058 -0.0739173 0.012667)
(-0.00427528 -0.0535092 0.0056478)
(0.00203313 -0.0637154 0.00938343)
(-0.00275246 -0.0603884 0.00952441)
(0.000527719 -0.000439068 -0.000443188)
(0.0141189 -0.0252532 0.00458929)
(0.0137766 -0.0256211 0.00665161)
(-2.29006e-05 -0.000346997 0.000398914)
(-0.000443781 0.00051014 -0.00583719)
(-0.000808458 -0.00178875 -0.00862849)
(-0.00210962 -0.00282735 -0.00753166)
(-0.000297144 -0.00061015 -0.00688624)
(-0.000104632 -0.000359446 0.000262202)
(0.000932234 -0.00205057 0.000809734)
(9.15025e-05 0.000195451 7.54602e-05)
(-4.07079e-05 0.000234182 3.07358e-05)
(4.97867e-05 0.000258615 7.72949e-05)
(-1.43159e-05 0.000214074 4.53166e-05)
(-0.00455461 -0.0046446 -0.00544635)
(0.00238353 -0.0441626 -0.0240237)
(-0.00272694 -0.0396629 -0.0243681)
(-0.000897933 -0.0407359 -0.0202187)
(-0.000282973 -0.0414292 -0.0251885)
(-0.00543488 -0.00711134 0.0020279)
(-0.00275777 -0.0124072 0.00323856)
(-0.000814711 -0.00841014 1.06464e-05)
(-0.0002543 -0.0021726 0.000193133)
(-0.00272015 -0.0163765 0.00771536)
(-0.0031171 -0.0132737 0.00534887)
(9.00692e-05 -0.0160034 0.00818325)
(-0.00131829 -0.0158294 0.00784646)
(-0.0028209 -0.0129912 0.0101169)
(-0.00659428 -0.0286128 0.00814971)
(-0.00778744 -0.0229982 0.00343764)
(-0.00499763 -0.0132363 0.00208323)
(-0.000539908 -0.0155961 0.00120247)
(0.0117716 -0.0344123 0.00919682)
(0.0198187 -0.0456335 0.00392268)
(0.0183141 -0.041959 0.00644141)
(0.0223768 -0.0477575 0.00466121)
(-0.000320004 -0.00341718 -0.00217753)
(0.000618066 -0.00236608 -0.00184895)
(-0.0020584 -0.003209 -0.000737886)
(-0.00164034 -0.00381936 0.00165926)
(-0.00395005 -0.00397848 0.0024058)
(-0.00118065 -0.00193656 0.00137918)
(0.00199737 -0.0172806 0.0112346)
(-0.000417475 -0.0127899 0.00868846)
(0.00545856 -0.0290837 0.000920598)
(0.00045025 0.000651435 -0.000368797)
(0.000389707 0.00101166 -0.000337504)
(0.0024351 -0.0349703 0.00206171)
(0.00110113 -0.0316879 0.000899815)
(-0.004522 -0.0411332 -0.000813939)
(-0.000139227 -0.00072685 -0.00059929)
(-0.0106157 -0.0253405 0.0176061)
(-0.00385068 -0.0348145 -0.000233937)
(2.9291e-05 -0.0116554 0.00446559)
(-0.000487566 -0.00301081 0.000142137)
(-0.000851162 -0.00444954 0.000892337)
(0.000523457 -0.00153849 0.00100647)
(-0.00504632 -0.0755246 0.0105036)
(-0.00942533 -0.0601778 0.00713766)
(0.0123452 -0.0372763 -0.0122439)
(0.00996023 -0.0426053 -0.0154099)
(0.0143623 -0.0393009 -0.0116482)
(-0.0047326 -0.023893 0.0104406)
(-0.00149557 -0.0112567 0.00790066)
(0.00056973 -0.00299189 -0.00173846)
(1.37831e-05 4.47468e-05 0.000159207)
(-0.00136369 -0.0174199 0.00161384)
(-0.00160274 -0.0162877 0.00615692)
(0.00122011 -0.00339783 0.00770219)
(-0.00692378 -0.0591528 0.00165914)
(-0.00630991 -0.066153 0.00212651)
(-0.00316167 -0.0631634 0.0048219)
(-0.00102877 -0.00329001 -0.000406812)
(0.00032476 0.000153631 0.000368051)
(-0.000259796 -0.000223179 0.0006314)
(0.000812973 -0.00239804 0.000109176)
(0.00129203 -0.00289329 -0.00079573)
(-0.00152371 -0.0119077 -0.00178518)
(0.000121188 -0.00171512 0.0013187)
(0.00150647 -0.0107152 -5.12778e-05)
(0.00327908 -0.0291077 0.010349)
(-0.00426739 -0.0146297 0.00654312)
(0.000773007 -0.0161742 0.0118313)
(-0.000411664 0.000846701 0.00138686)
(-0.00221282 -0.0152219 0.00775592)
(-0.00257626 -0.00439823 0.00896678)
(0.000117784 0.00183237 0.00656527)
(-0.000408613 0.00118135 0.00593538)
(-0.000734526 -0.00277685 0.00203508)
(-7.95564e-05 0.000815758 9.10115e-05)
(-0.00608969 -0.0252736 0.0221192)
(0.00504922 -0.0234695 0.00562537)
(0.0109528 -0.0446802 0.00800011)
(-0.0183952 -0.0205854 -0.0327059)
(0.000575018 -0.00285894 0.00129267)
(3.53902e-05 0.00111078 0.000139429)
(0.0096064 -0.0241047 -0.0016746)
(0.00239811 -0.0158851 0.0137011)
(0.000238881 -0.0341961 0.0125739)
(0.0191579 -0.0334477 0.00205956)
(0.000235624 -0.0056557 0.000204378)
(0.00151754 -0.0196524 0.0163337)
(8.94781e-05 0.000207898 0.000171123)
(-0.0138151 -0.00753189 0.0300936)
(-1.10132e-05 -0.00243695 -0.00294062)
(-0.000334185 -0.00422144 0.000850951)
(8.49374e-05 -0.00478204 -0.00328311)
(-0.000954412 -0.00524553 0.00162647)
(-0.000365455 -0.00343784 0.000718178)
(-0.000171127 -0.00850001 -0.000344382)
(0.000178818 -0.00736851 -0.000320903)
(-0.0157517 -0.0524179 0.00864123)
(-0.0221843 -0.0703504 0.01785)
(-0.016833 -0.0519377 0.0102976)
(0.0148597 -0.0502034 0.00508168)
(0.0135793 -0.050089 0.00712015)
(0.0139172 -0.0496732 0.00662465)
(0.000260834 0.00135128 -0.000426569)
(-0.0298936 -0.0650853 -0.0486182)
(-0.00129836 -0.000809046 0.00346167)
(0.000200237 -0.00290396 0.00133527)
(0.00120317 -0.00458237 0.00268273)
(0.000559139 0.00073493 -0.000540519)
(0.000323145 0.000417743 -0.000232065)
(0.00703354 -0.0194686 0.00154528)
(0.000134569 -0.00104268 -0.000930349)
(0.00270601 -0.00820291 0.00197717)
(-0.000573931 -0.00894338 0.00351813)
(-0.00337162 -0.00945425 0.0136278)
(-0.00120273 -0.00970483 -0.00150383)
(-0.000726317 -0.00636876 -0.0020987)
(-0.00148802 -0.0125283 0.00127696)
(-0.00568061 -0.0343164 0.00784671)
(-0.00287483 -0.0317082 0.00966702)
(-0.00586843 -0.0346545 0.0103143)
(-0.00211815 -0.011006 -0.00221285)
(-0.0183203 -0.0286252 -0.0172832)
(-0.00261137 -0.0425747 0.0103018)
(-0.00436785 -0.0432939 0.00703808)
(-0.00304054 -0.0429923 0.00584232)
(-0.00584003 -0.0462543 0.00876279)
(-0.000114335 -0.000765952 -0.000872261)
(-0.000415015 -0.00291719 0.000328504)
(-0.00859371 -0.0217425 -0.0297183)
(0.00588627 -0.0279342 0.0275156)
(-0.0124558 -0.0236048 -0.0194614)
(-0.016012 -0.0272663 -0.0201921)
(0.000356969 -0.00743748 -0.00186462)
(0.00760739 -0.0231896 0.0198391)
(0.00269097 -0.0068576 0.00103863)
(-0.000287137 -0.00243183 0.000261722)
(0.000303913 -0.00275037 -0.000105475)
(-0.000328102 -0.00542701 0.000163283)
(-0.000222136 -0.00357902 0.000398204)
(-0.000161816 -0.000378705 0.00192447)
(0.00506683 -0.0349971 0.0240962)
(-0.00131569 -0.0108591 0.00279478)
(-0.00211895 -0.0212794 0.00824614)
(-0.00720144 -0.00342167 0.0102948)
(-0.000509436 -0.0089318 -0.000196425)
(0.000120178 0.000238246 0.000138736)
(-0.000275662 -0.00158183 -0.000463845)
(-0.000508267 -0.00258186 -0.00170167)
(-0.00135778 -0.00693808 -0.000547224)
(-0.000579108 -0.00190995 -0.00103881)
(0.00074144 -0.000991167 -0.00131349)
(-0.000617932 -0.0714951 0.00236755)
(-0.00282714 -0.0417086 0.00118031)
(-0.00421886 -0.0663575 0.00467592)
(-0.00699461 -0.0706065 0.00205889)
(-3.51283e-06 0.000718074 0.00137678)
(-0.00711 -0.0142518 0.000964876)
(0.00639703 0.00861244 -0.0030205)
(-0.00769084 -0.0134479 0.00533998)
(5.36572e-05 -0.000423599 -0.000327231)
(9.83297e-05 0.000213942 0.00103768)
(0.00506362 -0.00148397 -0.00495137)
(0.000703851 0.0012693 0.000637473)
(-0.0115072 -0.0210119 0.00108864)
(-0.000582112 -0.0133693 -0.00098912)
(-2.33168e-05 -0.000392827 0.000238934)
(0.00184666 -0.0104665 0.0096448)
(0.000470191 0.000810838 -0.00131368)
(0.00106155 -0.00232272 0.00158119)
(0.0107454 0.0130772 0.00368097)
(0.212848 -0.246512 1.15922)
(0.00953262 -0.0230474 6.49287e-05)
(-0.000630513 -0.00129819 0.00382287)
(0.000179512 -0.00267718 0.00240289)
(0.000210649 -0.00153296 0.000951996)
(-0.000339316 -0.0159727 -0.000949191)
(-0.000991213 0.00122766 0.00232479)
(-0.004901 -0.0166019 -0.00110561)
(-0.00920863 -0.02872 -0.000797007)
(-4.17926e-05 0.000395423 0.000257029)
(-1.47022e-05 0.000394708 0.000271151)
(0.0016649 -0.00838778 0.00792032)
(-0.000187254 0.000234006 -0.00103873)
(-0.00144566 -0.00979343 -0.00152173)
(-0.00372085 0.000165626 0.00043905)
(-0.00345148 0.000721645 -0.00183836)
(-0.000601052 0.000246927 -0.00132415)
(-0.000383402 -0.000393057 -0.000744531)
(-0.00402033 -0.0146623 -0.00135305)
(-0.00031012 -0.00357864 0.00180439)
(0.00227298 0.00225131 -0.00432142)
(-0.00166939 -0.00464814 0.000108857)
(-0.00058356 -0.00406937 0.00229717)
(-0.000531324 -0.00510965 0.0021424)
(0.000318088 -0.0028951 0.000416443)
(2.70005e-06 0.000132986 2.60822e-05)
(0.000180259 -0.00438838 0.000619921)
(0.00163186 -0.0464229 -0.000516577)
(-0.00666702 -0.0156351 0.0020858)
(-0.000206734 0.000282725 0.000344101)
(0.00101921 -0.0011857 0.00104842)
(-0.00052943 0.000915989 0.000618728)
(-0.000205388 -7.19728e-05 0.00166934)
(0.00172523 -0.00721352 0.00372164)
(0.00771182 -0.0344664 -0.00333)
(0.00183864 -0.0408228 0.00148866)
(-0.00273693 -0.00935224 0.00174998)
(-0.00143481 -0.0287309 -0.000558454)
(0.000178417 -0.00286892 0.00139639)
(0.00178887 -0.0530083 5.54332e-05)
(-7.12781e-05 6.74588e-05 -0.000164101)
(0.0113618 -0.045058 0.011053)
(-0.000243356 0.000392486 0.000283986)
(0.00336352 -0.0145505 -0.000138255)
(0.000663946 -0.0126599 -0.00157259)
(0.00191494 -0.0109255 -0.000537845)
(0.00185806 -0.0138966 0.000462791)
(0.000110464 0.000212563 0.000211385)
(0.00142048 -0.00479768 -0.000195257)
(0.00818942 -0.00955853 -0.0162187)
(-0.00225959 -0.000417523 -0.000798447)
(-0.000534776 0.000269026 0.0013964)
(0.00600199 -0.0433078 0.0252961)
(-0.00718242 -0.0297696 0.0295493)
(-0.000270169 -0.00260905 5.85174e-06)
(0.000380469 -0.00361052 0.000312447)
(0.00908426 -0.0410491 -0.054597)
(-0.000261872 -0.000445559 0.000195075)
(0.000656336 0.000605768 -0.000343417)
(0.00126573 0.00155729 -0.000925756)
(0.01808 -0.0111246 -0.013947)
(-0.0011711 0.00241081 -0.0041428)
(-0.0024541 0.000920535 -0.00296546)
(0.000374684 0.000535898 0.00166421)
(-9.30593e-05 0.000107631 0.00026011)
(5.7624e-07 -4.21445e-05 0.000255974)
(-0.0037238 -0.0115637 0.00511563)
(-0.0022709 -0.00124644 -0.000899729)
(0.000149255 -0.00263819 0.00125457)
(0.00365724 -0.00699089 -0.0131684)
(-8.22511e-05 0.000563366 0.00123052)
(-0.00202932 -0.00046384 0.00336334)
(-0.00807137 -0.00973512 -0.0184177)
(0.000495588 -0.000897754 -0.000264897)
(0.0202613 -0.0440866 -0.129908)
(-0.00237727 0.00390596 0.00974051)
(-1.66431e-05 0.000259419 0.000132164)
(-0.000598155 0.0009318 0.000910913)
(0.00246708 -0.0251954 0.00376431)
(-0.048383 -0.0667416 -0.0473655)
(-0.00165246 -0.026864 0.00317981)
(-7.07818e-05 0.000623189 0.00141539)
(0.00684899 -0.0265283 0.00555524)
(-0.0175208 -0.0274276 -0.0156878)
(-6.27111e-08 1.01917e-05 -3.25867e-06)
(-0.000630051 -0.0245792 0.00296751)
(-0.00408142 -0.0258556 0.00461863)
(-0.0142216 -0.0327673 -0.0224975)
(-3.17613e-05 0.000931564 0.000195659)
(-0.000216124 0.00140443 -7.90421e-07)
(-0.000163873 0.00102049 -0.000402652)
(-0.00518396 -0.0303317 -0.0263625)
(0.00637134 -0.0186716 0.0136695)
(-0.0159538 -0.0298958 -0.017273)
(0.0232752 -0.0432612 -0.0802534)
(0.00921594 -0.0492325 -0.0990347)
(0.0190504 -0.0430591 -0.0929373)
(-0.0265522 -0.0317724 -0.0401656)
(0.000859697 -0.00198419 0.00797093)
(0.000799192 0.00238533 -0.000487186)
(0.0020279 -0.00226975 0.0063447)
(0.000477214 -4.4981e-05 0.00664225)
(-0.000598746 -0.00102815 0.0108568)
(0.00078731 -0.00217359 0.00989262)
(-0.00406261 -0.0377891 -0.00271522)
(-0.000553318 0.00012761 0.00184545)
(0.000790441 0.00174356 -0.00248239)
(-5.45833e-05 0.000498967 -0.000278088)
(0.00636276 -0.0194729 0.0132131)
(1.02224e-05 -0.000211056 9.33572e-05)
(0.0132594 -0.0141899 -0.0187972)
(0.000265334 0.000881842 0.00230082)
(0.0133718 -0.00806979 -0.0128101)
(0.00913507 -0.00420544 -0.0137258)
(-2.88335e-05 5.64947e-05 5.79678e-05)
(-0.00163367 -0.0243822 0.00221572)
(0.00463965 -0.0416286 -0.00133548)
(-6.17752e-05 5.66122e-05 7.25129e-05)
(-0.000446725 0.000821189 -0.000869285)
(0.000112636 0.00314698 -0.000558109)
(0.0207079 -0.0562779 -0.000531418)
(0.0211402 -0.0525704 0.0128613)
(0.0290812 -0.0562135 0.0109188)
(0.0274963 -0.0520317 0.00338286)
(-0.000227222 -0.00922912 -0.000640568)
(0.00220093 -0.0142075 0.00892832)
(0.00179974 -0.0473475 0.00154872)
(0.0156209 -0.0580567 0.0159484)
(0.0045978 -0.0613013 0.0179659)
(0.00362429 -0.0145682 0.0089666)
(0.00210542 -0.0239309 -0.00503249)
(0.00265797 -0.0259728 -0.00683371)
(-0.00294572 -0.00276401 0.00413838)
(-0.000312649 0.000621224 -0.000289931)
(0.00259023 -0.0245855 -0.0041656)
(-0.00363134 -0.0601524 -0.00330122)
(-0.00148893 -0.0393771 0.000136111)
(-0.000290228 0.000553785 0.000168026)
(-5.81146e-05 -0.00118933 -0.000942997)
(0.000803526 0.00151763 -0.00016873)
(0.000708373 0.0011562 -0.00104343)
(-0.000463787 -0.0150943 0.00472126)
(0.000823793 -0.0272616 0.000946353)
(0.00111621 -0.0197844 0.000608142)
(-2.82752e-05 1.5215e-05 1.40433e-05)
(0.00199751 -0.0246152 -0.000465531)
(-1.0463e-05 7.21359e-05 1.8214e-05)
(-0.00766997 -0.061925 0.00655743)
(-0.000438762 0.000506728 -0.0011458)
(-0.000775692 8.78208e-05 -0.000231504)
(-0.0002504 -0.000700783 -0.000762032)
(-0.000727087 -0.000141889 -0.00102971)
(0.000700747 -0.0209852 0.0134002)
(0.127278 -0.0700163 0.23591)
(-0.000134544 -0.00105061 -0.000960913)
(-0.000197076 -0.00101183 -0.000973844)
(-0.000436591 0.00102927 0.00124949)
(-0.00193587 -0.0104536 -0.00270376)
(-3.33013e-05 -8.15807e-05 0.000309336)
(1.42974e-06 -0.0301864 0.00115199)
(-0.00221404 -0.0254402 0.00470671)