/*--------------------------------*- C++ -*----------------------------------*\
| =========                 |                                                 |
| \\      /  F ield         | OpenFOAM: The Open Source CFD Toolbox           |
|  \\    /   O peration     | Version:  5.0                                   |
|   \\  /    A nd           | Web:      www.OpenFOAM.org                      |
|    \\/     M anipulation  |                                                 |
\*---------------------------------------------------------------------------*/
FoamFile
{
    version     2.0;
    format      ascii;
    class       volScalarField;
    location    "0.5";
    object      p;
}
// * * * * * * * * * * * * * * * * * * * * * * * * * * * * * * * * * * * * * //

dimensions      [0 2 -2 0 0 0 0];

internalField   nonuniform List<scalar> 
322252
(
-2.10829
-2.07805
-2.0868
-2.07447
-2.08746
-2.09458
-2.08947
-2.08153
-3.43906
-3.03597
-3.05487
-3.57963
-2.01438
-1.99665
-2.00359
-1.99442
-1.99949
-1.98905
-1.98729
-2.06268
-4.97912
-4.98429
-4.98295
-4.9904
-2.09809
-4.97674
-4.12232
-4.11327
-4.108
-3.29375
-3.43497
-4.05954
-4.05531
-4.06871
-2.09802
-4.92171
-4.95712
-4.85427
-2.64733
-4.17273
-3.02643
-2.0929
-2.14176
-3.28329
-2.1323
-4.43681
-2.13849
-4.43839
-2.09639
-3.022
-3.05045
-2.07039
-2.07643
-3.05168
-2.09254
-3.25099
-2.11742
-2.10518
-3.04879
-2.08069
-2.09624
-2.10011
-2.10921
-2.11559
-2.00607
-2.03463
-2.00095
-2.01371
-2.01156
-2.02195
-2.03783
-2.01812
-1.95677
-1.92582
-1.94863
-1.95096
-1.95807
-1.94287
-1.9437
-1.96158
-1.96481
-1.99305
-2.0012
-1.97919
-1.99346
-1.98555
-1.98047
-1.99111
-1.96789
-1.94251
-1.94557
-1.95488
-1.92495
-1.95684
-1.94755
-1.96062
-3.38416
-1.9251
-1.96375
-1.95008
-3.01668
-1.96009
-1.83475
-1.83303
-3.25888
-3.02673
-1.98962
-1.97725
-1.97959
-3.26662
-1.97915
-3.37564
-3.03132
-1.9776
-1.96121
-1.98932
-1.99178
-1.98547
-1.94979
-3.96032
-1.9882
-3.06139
-1.96325
-1.9979
-1.98382
-1.98956
-1.98092
-2.00521
-3.37099
-1.9943
-2.00186
-2.02696
-2.00903
-3.39306
-2.00709
-3.03179
-3.58472
-2.01864
-2.04586
-3.58513
-3.5834
-2.02033
-3.58679
-2.02735
-2.05554
-2.06708
-2.04361
-3.15444
-3.15566
-2.05139
-0.117102
-2.0398
-1.99872
-0.120997
-3.06704
-0.170315
-0.127179
-3.37612
-4.98323
-3.37062
-2.03214
-4.98398
-2.01134
-3.36654
-2.15019
-2.15485
-2.02226
-2.15105
-2.03439
-4.27962
-4.2726
-4.27366
-3.37003
-3.19687
-3.19534
-3.37873
-2.01346
-1.17846
-2.04007
-3.37125
-1.18074
-1.95225
-2.02752
-4.28193
-2.82466
-2.29106
-2.04167
-2.03985
-2.0295
-3.77244
-2.03147
-1.49852
-1.5453
-3.36494
-3.4374
-3.36692
-3.36499
-3.08343
-3.08216
-3.39043
-3.05128
-3.06334
-1.9632
-1.96396
-1.96257
-4.00068
-1.96791
-4.00105
-1.96467
-1.95181
-1.99744
-1.98667
-1.98451
-1.96482
-1.96624
-1.98521
-1.99623
-1.98537
-1.97151
-1.95632
-1.97112
-1.98426
-1.98645
-1.96832
-1.96085
-3.04947
-1.99117
-1.96174
-1.96109
-3.0534
-1.97093
-1.95193
-1.98405
-4.02168
-3.5665
-1.96899
-1.97345
-3.58579
-1.97601
-3.61448
-1.99181
-1.97121
-1.98547
-2.0138
-2.00019
-1.99804
-1.98661
-2.01066
-3.58382
-3.68287
-1.99512
-3.39053
-3.39686
-3.67859
-1.98842
-3.6863
-1.99741
-3.70695
-1.97973
-2.01085
-3.46913
-3.51731
-1.99136
-1.99678
-1.97964
-1.99711
-2.00219
-1.97018
-1.96428
-1.96643
-2.00352
-1.98872
-3.49162
-2.87052
-2.87778
-2.01287
-2.87874
-2.91706
-3.57887
-3.57327
-3.05245
-1.95912
-3.57353
-3.56415
-3.56352
-3.57097
-3.67086
-3.66607
-3.38347
-3.65613
-1.99007
-3.38038
-3.39071
-3.65791
-3.38842
-3.66414
-3.67606
-3.05215
-3.28299
-2.02757
-2.03017
-3.03991
-3.2535
-3.26538
-2.04537
-2.05262
-2.02409
-2
-2.01762
-2.03815
-2.01992
-2.04055
-3.06365
-1.95709
-3.03882
-1.98889
-1.97736
-1.97022
-3.35822
-3.35807
-2.02265
-1.98777
-1.98094
-2.00495
-2.00402
-2.01312
-2.00078
-1.99132
-3.35412
-1.98704
-3.40654
-2.00821
-2.00723
-2.00558
-3.34489
-3.34327
-3.34948
-1.99125
-2.03491
-2.01307
-2.01373
-1.99781
-3.47033
-3.47068
-3.38362
-3.45954
-3.47219
-3.37286
-3.45606
-3.46208
-3.20282
-3.19605
-3.46267
-2.03115
-3.18726
-2.01627
-2.03404
-2.02687
-3.11445
-3.11464
-3.10658
-3.2219
-1.99443
-2.00644
-3.19536
-3.1969
-2.92675
-4.17043
-1.98785
-1.98218
-3.34443
-2.0312
-2.01471
-2.00023
-2.01768
-1.98889
-4.16274
-2.04765
-2.03593
-2.04108
-2.06339
-4.05174
-2.03211
-3.04798
-2.02189
-2.05287
-3.36775
-4.06103
-4.05413
-3.97688
-3.42097
-3.43405
-2.01712
-3.20888
-3.9771
-2.03205
-2.02518
-3.45484
-3.44814
-2.03779
-2.03985
-3.414
-2.01774
-2.02405
-2.03534
-2.03237
-3.01636
-3.20273
-3.07293
-2.04867
-2.01551
-2.01711
-2.03134
-3.09304
-1.9963
-3.97765
-2.06193
-2.06202
-2.06454
-2.0402
-2.05285
-2.05746
-2.07134
-2.06424
-2.87757
-2.04352
-2.02136
-3.10309
-2.04283
-2.8771
-2.03727
-2.8726
-2.01116
-2.00222
-2.86487
-2.03047
-3.00248
-2.01428
-2.99432
-2.01527
-3.46452
-2.06727
-2.98342
-3.45801
-3.04883
-2.05711
-3.04663
-3.47768
-2.03357
-3.28527
-3.46452
-2.05808
-3.41692
-3.0941
-3.42668
-2.49107
-2.03018
-2.07499
-2.05392
-3.43611
-2.05666
-2.07034
-2.05387
-2.04431
-2.05934
-2.52972
-2.02591
-2.034
-2.0326
-2.33886
-2.04183
-2.36704
-2.05148
-2.06401
-2.02202
-2.02347
-2.04081
-2.06035
-2.03252
-2.05003
-3.76763
-2.93851
-3.76594
-3.29802
-3.77209
-3.38896
-3.78135
-3.78365
-3.02136
-2.89611
-2.91951
-2.90161
-2.89452
-2.90134
-2.91396
-3.09239
-2.94019
-2.96198
-3.09198
-2.9395
-2.95426
-2.94365
-2.94631
-2.95647
-2.90844
-2.89804
-3.43867
-2.91939
-2.91188
-2.90754
-2.89386
-2.90029
-3.78536
-2.9673
-2.95692
-2.97621
-2.96668
-3.74007
-2.9605
-3.28734
-2.94046
-2.93426
-3.74805
-2.95556
-2.94731
-2.94279
-1.95321
-1.95956
-2.91257
-2.91974
-2.93365
-1.97979
-1.97259
-1.97909
-2.92671
-2.92127
-2.89805
-2.89062
-2.89031
-2.91639
-2.89483
-2.89359
-2.89416
-3.42714
-1.95149
-2.89401
-3.03541
-3.39087
-2.91438
-2.89919
-3.12108
-3.14407
-2.94625
-2.96213
-2.936
-2.9367
-2.94149
-2.95177
-2.94122
-2.94622
-3.00277
-2.98122
-2.98515
-3.30136
-3.28696
-3.08803
-2.98734
-2.97884
-3.02416
-3.03895
-3.03391
-3.02509
-3.02883
-3.03469
-3.0463
-2.33209
-3.02337
-3.01241
-3.01171
-3.00435
-3.00673
-3.01083
-3.00832
-3.01734
-2.98545
-2.98173
-3.00459
-2.99206
-2.99196
-2.98545
-2.99823
-2.9869
-2.96145
-2.97213
-2.9766
-2.98177
-2.97638
-2.97153
-2.97617
-3.37739
-2.98026
-3.00255
-2.99742
-2.99947
-3.00043
-2.9964
-2.98816
-2.99021
-2.97577
-2.99347
-2.97382
-2.9862
-2.98993
-2.99221
-2.98228
-2.98041
-3.03399
-2.9664
-2.95992
-2.98334
-2.9748
-2.96822
-3.16006
-3.16474
-2.31993
-2.98302
-2.97519
-2.30612
-2.96764
-2.97735
-2.30512
-2.31371
-2.9536
-2.3133
-3.15733
-2.39017
-2.39174
-2.38295
-3.02903
-3.03242
-2.96399
-2.96541
-2.95286
-2.94346
-3.08414
-3.2303
-2.96116
-2.96434
-2.91729
-2.90053
-2.91855
-3.38416
-2.90806
-2.91516
-2.92074
-2.90902
-4.27762
-2.94185
-4.27644
-4.28603
-3.0372
-3.40015
-2.59637
-3.24378
-2.58869
-2.58583
-2.92181
-3.06238
-3.06439
-2.49861
-2.90996
-2.49912
-2.50784
-2.51497
-3.1971
-1.89426
-1.89249
-2.50792
-1.91919
-2.49731
-3.07825
-1.91969
-1.89154
-1.91711
-1.91162
-2.63879
-1.88396
-2.63211
-1.83352
-1.77285
-1.86236
-3.05867
-3.72405
-1.81474
-3.72402
-1.79857
-1.95012
-1.96788
-1.94536
-1.90413
-1.92591
-1.94711
-1.96128
-1.93622
-1.86424
-1.88738
-1.9255
-1.92526
-1.91694
-1.87353
-1.93214
-1.88405
-3.38286
-1.91402
-3.72574
-1.92766
-1.91339
-3.38794
-1.90923
-3.05214
-3.0669
-3.08531
-1.86079
-1.8538
-3.74693
-3.02523
-1.87633
-1.89042
-3.022
-3.10103
-3.37732
-1.87185
-1.88126
-1.90811
-3.07569
-3.37102
-1.9416
-3.10491
-1.89237
-1.95592
-1.93643
-1.9171
-3.11582
-1.93481
-1.93408
-1.9561
-1.95998
-1.91204
-1.92576
-1.94397
-1.95631
-1.918
-1.9558
-1.96268
-3.09136
-1.90807
-1.93196
-1.94971
-1.98515
-1.94918
-3.07725
-3.08546
-1.84909
-1.8533
-1.81007
-3.10327
-1.8192
-3.11665
-3.06623
-1.8813
-3.10626
-1.87558
-1.87622
-1.89392
-3.21811
-3.09813
-1.94159
-1.90544
-1.93677
-1.88074
-1.89607
-1.89097
-1.95764
-1.92612
-3.20056
-1.89248
-1.9574
-3.76006
-3.76322
-3.77042
-3.10455
-3.11809
-1.94987
-1.90661
-3.1894
-1.95596
-1.94459
-1.92631
-1.95419
-1.93967
-1.99155
-1.98179
-1.93478
-3.09541
-3.13143
-3.02575
-1.96423
-1.98154
-2.03915
-2.05894
-2.04001
-3.02316
-3.01912
-2.03842
-3.02529
-2.0491
-2.0074
-1.98507
-3.00116
-1.94008
-1.96204
-1.98153
-1.97452
-1.99251
-1.88385
-1.83798
-1.91641
-1.87046
-1.87726
-1.86007
-1.89939
-1.88144
-4.10498
-1.91371
-1.92164
-1.95179
-1.92426
-1.96478
-4.1103
-4.10101
-4.76022
-1.91275
-2.02739
-3.01333
-3.01473
-4.76113
-3.03682
-4.74535
-1.92901
-1.94877
-2.00438
-2.99479
-1.96328
-1.93708
-1.98183
-1.95178
-3.37688
-1.95746
-2.02618
-2.98517
-1.98891
-1.9844
-2.02068
-1.98975
-1.62918
-1.70061
-1.71502
-1.67466
-1.67855
-1.66155
-1.68669
-1.70255
-1.55145
-1.47009
-1.56127
-1.54174
-1.52893
-1.51668
-1.57132
-1.53846
-1.6503
-4.76668
-1.71247
-1.73603
-1.72747
-1.72774
-1.67364
-1.70426
-1.73635
-3.39709
-1.66064
-1.7383
-1.72186
-3.39404
-1.70815
-3.37909
-4.86507
-1.71353
-1.70945
-1.64353
-1.70916
-1.67775
-4.87792
-4.86361
-4.84752
-1.72204
-1.58552
-1.62494
-1.64013
-3.3942
-1.60293
-3.39229
-1.7046
-1.73249
-1.61658
-1.69562
-1.71712
-1.71869
-1.66666
-1.67607
-1.62816
-1.67423
-1.59339
-1.69647
-1.65231
-1.66019
-1.60997
-1.61621
-1.88886
-1.9436
-1.87458
-1.87697
-1.90221
-1.92352
-1.90864
-1.89414
-1.83424
-3.01231
-1.76716
-1.78316
-2.9927
-3.39422
-1.8005
-1.80479
-1.74504
-1.73597
-1.80077
-1.73824
-1.7555
-1.72879
-1.76449
-1.75485
-2.98242
-2.98218
-2.99089
-1.7542
-1.76721
-1.78086
-3.01219
-2.99082
-1.87707
-1.95443
-1.89328
-2.98865
-1.93462
-1.94343
-1.90724
-1.91506
-2.85708
-2.86061
-3.01947
-1.76889
-1.79411
-3.38923
-1.81481
-3.69751
-1.88535
-3.08299
-1.94779
-3.69792
-3.3987
-3.38722
-1.91538
-3.18
-1.83362
-3.95239
-1.79702
-2.99053
-1.84212
-1.78768
-1.79534
-1.82213
-1.85126
-3.01098
-1.84786
-1.77121
-1.82332
-1.84629
-1.85739
-1.83617
-3.07425
-3.96461
-2.99339
-1.78805
-1.7982
-3.38235
-1.80919
-3.01228
-1.87766
-3.18556
-1.88378
-3.18805
-2.98158
-2.98304
-1.89977
-1.88383
-3.09717
-3.38042
-2.98221
-3.71777
-3.72374
-2.97396
-3.74504
-3.74582
-1.76881
-1.76147
-1.82144
-1.81916
-1.80774
-1.77435
-1.77158
-1.80284
-1.79143
-1.80763
-1.85873
-3.74453
-3.74295
-4.37322
-1.84406
-1.81427
-1.91124
-1.97339
-4.37489
-4.35965
-4.37884
-3.0376
-3.02383
-2.97168
-1.91438
-1.96425
-1.90772
-3.00932
-2.95992
-1.95012
-4.44047
-1.93265
-3.01857
-3.02808
-1.88399
-1.89941
-2.99771
-2.99957
-3.00594
-3.00218
-2.29038
-1.88757
-1.77213
-1.87481
-1.82535
-3.39163
-1.84975
-2.29376
-1.84176
-2.29471
-1.89735
-1.87636
-2.29867
-2.94527
-1.89179
-1.91769
-1.7892
-1.85491
-1.87115
-1.84293
-1.83177
-1.81175
-1.83081
-1.85346
-1.90535
-2.94918
-3.3879
-2.95838
-2.95901
-3.01474
-2.8111
-3.1431
-3.02103
-2.79408
-2.80752
-1.83299
-1.81174
-2.79561
-1.83083
-2.80603
-3.37761
-1.96977
-3.03076
-1.99323
-1.98817
-3.33206
-1.9607
-4.42489
-1.95721
-1.97243
-1.87002
-1.97167
-1.94887
-1.96934
-1.9337
-1.94988
-1.8736
-1.96109
-1.92783
-1.88866
-1.92877
-1.90067
-1.90222
-1.93766
-4.41085
-2.99206
-2.99857
-1.86445
-1.87209
-3.10498
-1.83454
-3.09195
-3.11644
-1.98253
-1.88853
-4.42896
-4.4025
-1.95987
-4.41079
-1.93608
-3.08448
-3.13537
-3.60606
-3.59409
-3.59581
-3.60692
-3.0753
-3.09525
-2.01244
-3.04685
-3.07717
-1.98777
-3.13356
-3.10617
-1.98558
-1.99825
-3.11257
-2.02424
-2.0326
-1.99336
-2.00589
-3.13916
-2.00787
-1.84562
-2.00281
-1.98332
-1.86284
-1.97181
-1.84307
-1.97246
-1.87786
-1.99876
-1.95403
-1.93617
-1.95769
-1.94437
-1.94764
-1.92889
-1.93053
-1.92239
-1.99251
-1.95972
-1.9575
-1.96918
-1.96331
-1.975
-1.98027
-1.97124
-1.999
-3.09508
-2.0166
-1.97998
-1.9799
-1.99963
-2.00709
-1.98753
-1.97515
-1.95601
-1.98253
-1.99939
-1.98756
-1.97483
-1.98284
-1.99414
-2.00241
-3.12176
-2.01352
-1.99862
-1.99579
-1.98694
-2.01457
-2.01626
-1.86515
-1.97424
-1.96108
-1.94053
-1.96549
-2.38451
-1.96566
-2.40143
-3.115
-3.08329
-1.91449
-1.93502
-1.92999
-2.20208
-1.93345
-2.20693
-1.8796
-3.08839
-1.92142
-1.91083
-1.90842
-1.89151
-3.06723
-3.22823
-3.01208
-3.05531
-3.05428
-1.9098
-3.19485
-1.93452
-3.08219
-3.04498
-1.9249
-1.90667
-3.05388
-3.17727
-3.06653
-1.9252
-3.38281
-3.13274
-1.93197
-2.21622
-3.12372
-3.10692
-3.22219
-3.05888
-1.94908
-4.02859
-1.94149
-1.91177
-1.91134
-4.03512
-4.02657
-3.04985
-1.92705
-1.93945
-3.05244
-3.05064
-1.89611
-3.05499
-1.94407
-3.20946
-1.94625
-3.09203
-3.08469
-3.09021
-1.8464
-3.09663
-3.10357
-3.11044
-3.09734
-3.09742
-1.79186
-1.77595
-1.82263
-1.80347
-1.80038
-1.78478
-1.82798
-1.78937
-1.85519
-1.89493
-3.06808
-1.88411
-3.07262
-1.88179
-3.07554
-1.87037
-1.86883
-1.85193
-1.83022
-1.86813
-1.85968
-1.86086
-1.84794
-1.84505
-3.09115
-1.8651
-1.85839
-1.8281
-1.85101
-1.83715
-1.84256
-1.85848
-3.08791
-1.85587
-3.10317
-1.81515
-1.82035
-1.8153
-1.81792
-1.82883
-1.83878
-1.8981
-1.81522
-3.08713
-3.06873
-1.87664
-1.87129
-3.0581
-3.09829
-1.83984
-1.84131
-3.11272
-3.11366
-3.0988
-3.08394
-3.12995
-1.94897
-1.97399
-1.94276
-3.13063
-3.10248
-1.96305
-3.02704
-1.95681
-1.9531
-1.95451
-3.03289
-1.9305
-1.94907
-3.022
-3.02608
-1.94509
-1.94793
-3.03952
-1.94807
-3.06575
-3.37331
-3.03258
-2.99607
-1.93175
-1.91522
-1.87588
-1.8945
-3.03268
-2.25347
-3.05368
-1.89342
-1.90099
-3.10089
-3.06405
-1.92369
-1.91225
-1.90886
-1.91491
-1.92974
-1.93177
-3.09561
-1.932
-1.95093
-1.92624
-1.93691
-1.93509
-3.11111
-3.07402
-3.10231
-3.07149
-1.95252
-1.95079
-1.96723
-3.05792
-3.75933
-3.76072
-1.95977
-3.75933
-1.94249
-3.76652
-3.10151
-3.10138
-4.06626
-3.0855
-1.88753
-3.18803
-1.89641
-1.91541
-1.87713
-1.90221
-1.88523
-1.87959
-1.8819
-1.87147
-1.89722
-1.89789
-1.88691
-1.88632
-1.8681
-1.90696
-1.94083
-1.96054
-3.05557
-1.95994
-1.94849
-1.95245
-3.51975
-3.49831
-3.39051
-3.18834
-2.23367
-1.94246
-1.95933
-1.93904
-3.37458
-3.37666
-1.92872
-3.21076
-1.90298
-1.91364
-3.22335
-3.09469
-1.91974
-1.90064
-3.39211
-1.95947
-1.97803
-1.94764
-1.97329
-1.94916
-1.96051
-1.97867
-1.96831
-2.00689
-1.93765
-1.96432
-1.96331
-1.9722
-1.94873
-1.95561
-1.90981
-3.09146
-2.31894
-3.08318
-2.32313
-1.93769
-2.33742
-1.93099
-1.94734
-1.94994
-1.89783
-1.9493
-1.93954
-1.9273
-1.94523
-1.95561
-1.93913
-2.2004
-2.19596
-1.945
-1.93502
-2.21614
-1.94125
-3.09277
-1.88745
-1.94329
-1.95959
-3.07655
-2.10649
-3.08083
-1.94005
-1.93208
-2.12011
-3.10148
-1.96585
-2.12237
-0.0814165
-0.0707904
-0.0311442
-3.10741
-1.93782
-1.97212
-1.94457
-3.08416
-0.0851454
-0.0845233
-1.94166
-1.95025
-1.90448
-1.87764
-1.86606
-1.88346
-1.87475
-1.88821
-1.88827
-1.88238
-1.86717
-3.0761
-0.065178
-3.08456
-0.0361296
-3.09017
-3.18325
-1.87658
-1.92319
-1.90899
-1.89388
-3.1934
-3.10928
-3.21114
-3.08767
-1.91048
-3.07349
-3.11264
-1.90248
-1.87768
-3.09971
-3.11032
-4.98683
-4.99023
-4.98062
-1.92098
-1.91566
-1.89708
-1.9091
-3.10639
-1.904
-3.12029
-1.93151
-3.128
-1.85998
-1.92561
-1.92266
-3.10613
-1.89695
-1.89484
-1.92239
-1.91451
-1.87439
-1.92742
-1.9134
-1.92649
-1.91203
-1.901
-1.9647
-3.1463
-1.96288
-1.9314
-1.95193
-3.16069
-1.97627
-3.15121
-3.28935
-1.97404
-3.29357
-1.94899
-1.95673
-3.28112
-1.94797
-3.26858
-3.26861
-3.10815
-1.92118
-1.89012
-1.90258
-3.09865
-1.90321
-3.66897
-3.11882
-1.92045
-1.93192
-3.12184
-3.12901
-3.65989
-3.09823
-3.65918
-1.89749
-1.90688
-2.26264
-1.93307
-1.92597
-3.37591
-4.00146
-3.17136
-3.68652
-1.9694
-1.97641
-1.96212
-1.95903
-1.94767
-1.95675
-1.94213
-3.06629
-3.15799
-1.92617
-3.1638
-3.104
-3.18032
-1.93977
-3.15947
-1.95522
-1.9479
-3.44053
-3.12445
-3.12774
-1.94399
-3.18235
-1.92887
-1.97841
-1.95138
-1.9292
-1.90978
-1.93095
-1.92337
-1.96375
-1.96813
-2.01495
-3.18641
-1.97827
-3.37042
-3.39216
-3.21079
-3.44203
-3.44484
-1.90226
-1.83254
-1.86682
-1.83811
-1.84579
-1.84894
-1.88506
-1.87879
-1.87939
-1.85972
-3.15167
-3.44912
-3.44962
-3.1565
-3.13649
-3.17636
-1.93255
-1.95378
-1.88163
-1.90354
-1.9047
-1.95315
-1.9351
-1.90187
-1.94535
-1.94669
-1.91259
-1.90444
-1.92088
-1.93594
-1.93663
-1.92067
-1.86645
-1.81296
-1.84855
-3.45763
-1.82139
-1.82777
-1.84366
-1.8526
-3.13345
-1.77214
-3.13713
-3.14862
-1.79985
-3.15935
-1.85125
-3.05149
-1.71022
-1.75569
-1.69965
-1.73359
-1.73633
-1.73831
-1.71188
-1.71707
-1.64571
-1.60968
-3.05212
-1.60965
-1.61455
-1.61877
-3.06091
-3.07133
-3.06304
-3.20409
-1.7579
-1.74233
-1.76366
-3.21335
-1.72751
-3.23484
-1.63624
-1.56468
-1.60094
-3.48014
-3.48991
-1.6224
-1.65471
-1.5789
-1.66311
-1.63758
-1.64434
-1.60536
-1.62739
-1.63371
-1.64472
-1.6574
-1.66351
-1.66073
-1.66078
-1.59395
-1.6375
-1.6531
-1.65755
-1.64196
-1.67917
-1.68226
-3.21613
-1.74664
-1.7213
-1.69688
-1.7052
-1.68641
-1.69997
-1.70666
-3.20768
-1.7492
-1.71057
-1.68719
-1.68835
-1.67718
-1.64635
-1.72175
-1.67079
-1.7109
-1.72554
-1.72223
-1.68228
-1.67483
-1.56522
-1.45676
-3.06164
-1.4734
-1.4535
-1.48344
-1.55565
-1.57978
-1.81529
-1.72714
-1.71472
-1.70436
-1.68906
-3.06875
-1.68841
-3.12028
-1.60525
-1.56562
-1.54122
-1.59491
-1.59735
-1.51644
-1.53335
-1.58119
-3.10763
-1.62077
-1.61703
-1.50948
-1.59241
-1.57467
-1.59485
-1.61781
-1.6614
-1.61848
-1.59571
-1.52258
-1.58642
-1.60434
-1.58278
-1.56998
-1.6493
-1.65849
-1.60912
-1.70475
-1.6737
-1.67288
-1.65299
-1.66329
-1.63137
-1.64818
-1.6435
-1.70394
-1.6709
-1.65362
-1.65205
-1.64328
-1.64625
-1.57394
-1.62655
-1.64359
-1.63219
-1.62909
-1.61104
-1.61506
-3.21656
-1.74647
-3.4764
-3.48864
-0.0548114
-0.0770303
-0.0302699
-0.0707019
-3.11223
-1.76984
-0.029398
-3.57426
-3.5419
-3.52534
-3.53716
-3.57074
-1.65727
-1.61402
-1.67388
-3.21776
-1.64714
-1.62576
-1.58216
-1.62646
-1.81665
-1.86358
-1.87223
-1.78674
-1.8102
-1.82263
-1.85587
-1.86067
-1.88174
-1.81958
-0.0832665
-1.85217
-0.0411034
-1.83407
-0.113129
-1.86492
-3.06578
-3.10637
-3.11642
-1.87911
-3.1238
-0.112077
-0.0741505
-0.130516
-3.13393
-0.0467771
-3.155
-0.0341729
-3.15111
-3.16458
-3.13027
-3.18464
-1.88869
-3.13528
-1.88069
-3.06092
-1.82444
-1.80886
-1.82292
-1.69389
-1.94486
-1.96507
-1.65597
-3.06711
-1.64717
-1.94888
-1.66857
-1.92896
-3.03771
-1.93128
-1.91189
-1.69081
-1.95485
-3.04681
-1.921
-3.06102
-3.02128
-1.90725
-3.0916
-2.96088
-2.954
-3.40392
-1.92189
-1.90544
-3.14932
-3.39737
-2.22678
-1.86676
-2.95959
-3.46999
-2.96333
-3.15046
-3.16928
-2.9743
-2.97807
-1.88281
-2.93693
-2.87582
-2.8667
-2.87227
-1.8586
-1.84753
-1.83126
-1.88394
-1.85775
-1.86017
-1.8408
-3.3913
-1.85687
-1.84453
-1.87468
-1.82552
-1.86
-1.84727
-1.83091
-1.8441
-1.90323
-2.88535
-1.91445
-2.89279
-1.90078
-2.84644
-1.89995
-2.88586
-2.955
-1.82639
-1.82787
-1.85958
-1.8334
-2.94266
-1.83113
-2.93671
-2.94798
-1.86785
-1.85819
-1.84494
-1.85879
-1.84894
-4.9947
-4.98403
-4.99316
-1.84903
-4.98512
-1.83206
-4.99774
-4.98397
-4.98601
-4.99322
-1.83491
-1.87787
-1.8858
-1.89134
-1.88273
-1.85529
-1.8771
-1.85007
-1.83759
-1.84112
-1.88333
-1.89079
-1.87243
-1.87697
-2.93395
-1.85109
-1.99213
-2.95757
-1.92961
-1.98109
-1.96669
-1.95478
-1.95323
-1.97743
-3.48936
-2.02705
-0.0294268
-1.97809
-0.0273223
-1.99319
-0.0169493
-1.98963
-2.01236
-1.98148
-2.97332
-1.95999
-1.97526
-1.99348
-1.99201
-1.98616
-2.94701
-1.91348
-1.9788
-1.95788
-1.95385
-1.92701
-1.94374
-1.93345
-2.92264
-3.38219
-3.05244
-1.96641
-1.9401
-1.97505
-3.19632
-3.05763
-1.99091
-1.95951
-0.0130218
-1.47309
-1.50512
-1.97434
-2.00873
-3.46526
-3.07995
-3.04784
-3.93216
-1.97414
-1.97903
-1.94773
-3.21909
-3.26837
-1.51827
-1.95518
-2.00585
-1.45494
-1.48668
-1.97325
-4.95269
-1.98709
-3.07006
-4.97096
-1.84978
-3.04691
-1.84224
-4.96167
-1.82889
-3.03636
-1.78457
-3.04363
-3.04237
-3.05206
-3.89739
-3.25114
-3.03039
-3.0732
-1.7984
-1.81666
-1.82879
-3.06883
-3.47151
-1.81941
-2.4871
-1.81321
-1.87646
-1.90123
-1.85058
-1.87514
-1.88528
-1.88737
-1.85686
-1.8701
-1.80337
-1.85328
-1.85144
-1.83497
-1.84728
-1.8438
-1.83675
-1.82789
-2.48668
-2.50949
-3.05142
-2.16219
-2.17178
-2.16098
-2.18155
-2.17612
-1.8521
-2.74634
-1.80045
-1.8365
-2.74754
-2.75385
-1.82495
-1.84239
-3.01751
-3.02464
-3.23171
-1.82827
-1.81773
-2.72595
-1.78854
-3.46613
-3.2252
-3.0379
-3.01724
-2.86764
-2.86943
-2.85808
-2.83671
-3.47198
-4.16974
-3.04557
-3.06583
-3.05784
-3.0504
-4.16716
-3.07285
-4.16882
-3.22109
-3.2106
-3.18202
-3.02555
-3.17391
-3.02165
-2.98967
-3.04081
-1.86957
-1.83007
-1.85407
-3.00898
-3.20589
-3.00786
-1.84808
-1.85287
-3.01032
-3.48324
-3.47901
-1.86285
-3.49943
-3.49764
-3.50562
-3.50388
-3.95475
-1.87205
-1.8999
-1.88543
-2.99252
-3.50956
-3.05531
-3.37493
-1.88146
-1.85957
-3.05562
-2.99283
-3.3724
-4.9774
-2.9857
-3.20706
-3.50768
-3.00882
-4.98387
-4.98908
-4.98742
-4.97285
-3.06474
-2.78856
-3.15629
-3.16936
-3.16879
-3.16683
-3.3764
-3.53768
-3.54976
-3.432
-3.43246
-3.03324
-2.99737
-3.06611
-3.11176
-3.08695
-3.05752
-3.09572
-1.86428
-2.98889
-1.88295
-3.43025
-1.84986
-3.10203
-1.85929
-3.01142
-1.85386
-1.83127
-3.43851
-3.04203
-4.7577
-3.08192
-4.75036
-2.96856
-3.77033
-3.7727
-2.97108
-1.86496
-1.85028
-3.07791
-3.76535
-3.76578
-3.7667
-1.87299
-3.76526
-3.02324
-4.25444
-4.22973
-4.25318
-4.20419
-1.88294
-4.21652
-1.85586
-2.98126
-1.86746
-1.86543
-1.86383
-1.85599
-3.06475
-1.86613
-2.95935
-3.05999
-3.0575
-3.06749
-2.96205
-2.96623
-1.87995
-1.86037
-2.96974
-2.97037
-1.87371
-1.86561
-1.89899
-1.88254
-1.90345
-1.94406
-2.98267
-3.06167
-4.30551
-2.98359
-1.90806
-1.89432
-1.93191
-2.99624
-2.9537
-1.94228
-1.94412
-1.96301
-1.9243
-1.91255
-1.95886
-1.98599
-2.97449
-4.27771
-2.94995
-1.97699
-4.52522
-1.92883
-2.94117
-3.51638
-2.94083
-2.92768
-3.5005
-3.49904
-2.95256
-1.95196
-2.97264
-3.21048
-2.94186
-1.93953
-2.95101
-3.23517
-1.91269
-3.20787
-2.94854
-1.92386
-1.91958
-1.91023
-2.94211
-1.9411
-1.91525
-1.93385
-1.88334
-3.25145
-1.90155
-2.92653
-1.89456
-3.23415
-1.88442
-1.15057
-1.88256
-1.09984
-1.8959
-2.92182
-2.95498
-1.14641
-2.94584
-1.05964
-1.88077
-1.85412
-2.93032
-2.94617
-1.88993
-1.87224
-1.86223
-1.88181
-1.90841
-2.95977
-1.92706
-1.09079
-2.93511
-1.93189
-2.82091
-1.91171
-2.91824
-1.96518
-2.94594
-2.95822
-1.94389
-1.97936
-1.95057
-2.9744
-1.90985
-2.99498
-1.92289
-1.92782
-2.97542
-1.94573
-1.91635
-1.92346
-1.88842
-3.00246
-1.8922
-2.99739
-2.99629
-1.89387
-1.89865
-2.9593
-1.92171
-2.8204
-2.93477
-1.91509
-2.81994
-2.82051
-1.93017
-1.93833
-1.89044
-2.93418
-2.92057
-1.88871
-1.89945
-1.90695
-1.88524
-1.87541
-1.91204
-2.82368
-1.88017
-1.84747
-1.87077
-1.85239
-1.89591
-1.88954
-3.09346
-3.57786
-3.95361
-2.0291
-4.01432
-4.01286
-4.01435
-4.0201
-3.08989
-3.93833
-2.92199
-1.83665
-3.08013
-2.91817
-3.95117
-3.08206
-1.88016
-1.93691
-1.93883
-1.88011
-1.90079
-1.88545
-1.90959
-1.9236
-1.77788
-1.81633
-3.49519
-2.9391
-4.97597
-1.79319
-4.979
-1.70916
-1.70897
-1.58845
-3.49089
-1.5804
-2.91158
-2.94105
-3.43808
-3.4398
-2.98186
-1.66411
-1.70033
-1.63748
-1.64878
-1.64691
-1.67295
-1.67425
-1.66342
-1.55247
-1.57426
-3.01926
-3.43749
-3.44342
-3.44811
-3.13526
-1.738
-1.70181
-1.69147
-1.7622
-1.74029
-1.73659
-1.70813
-1.71211
-1.76436
-1.78752
-1.81278
-4.02916
-4.98871
-2.26573
-1.78442
-1.78589
-1.87196
-1.89451
-1.81657
-1.84017
-1.83532
-1.87475
-1.87408
-1.84489
-1.65884
-1.64339
-2.26575
-1.69787
-1.70268
-1.66733
-1.70957
-1.68504
-3.01233
-2.26938
-1.66665
-1.693
-2.9899
-3.14559
-2.92501
-2.9111
-2.90407
-2.8951
-1.44625
-1.46833
-2.89875
-2.91095
-4.97333
-4.98896
-1.5008
-1.54489
-1.59596
-1.55632
-1.56145
-1.50995
-1.56838
-1.55968
-1.60772
-2.97687
-1.54357
-1.55929
-1.55955
-1.58582
-1.57037
-1.62399
-1.63923
-1.60293
-1.64351
-1.58279
-1.58443
-1.60548
-1.59769
-1.6078
-1.59194
-1.55115
-1.5718
-1.61729
-1.58328
-1.57092
-1.59434
-1.57204
-1.58338
-1.56666
-1.64801
-2.99974
-1.6263
-1.59195
-1.58854
-1.61673
-2.97642
-1.63655
-1.64845
-1.70736
-1.67752
-1.65939
-1.63744
-1.65957
-1.76055
-3.03359
-1.78356
-1.81829
-3.04574
-3.03944
-1.77272
-1.8088
-4.95752
-1.79527
-1.7671
-3.05389
-1.79655
-4.9805
-1.77222
-3.06672
-3.08481
-3.09063
-2.96919
-2.06658
-3.05092
-2.97193
-2.96795
-2.88
-3.70296
-2.09265
-2.05131
-3.09968
-3.26961
-3.27608
-3.04212
-3.06778
-3.06052
-2.08668
-2.08493
-2.06664
-2.05448
-2.07675
-3.07854
-3.05104
-2.45276
-2.00048
-3.07549
-2.02865
-2.01262
-1.99467
-3.067
-2.01252
-2.0523
-2.03406
-2.44876
-3.09163
-2.03055
-2.03822
-2.0367
-2.03037
-2.05429
-3.33227
-3.33826
-3.31148
-3.31072
-3.03901
-3.04125
-2.04337
-4.72073
-2.05368
-2.06377
-4.71896
-4.80676
-4.76655
-2.05629
-2.05598
-4.86886
-2.04366
-2.074
-2.08944
-2.06568
-2.05466
-2.07184
-2.05131
-2.10443
-2.08738
-3.0288
-4.79007
-3.9765
-2.07001
-3.97664
-2.10201
-2.13297
-2.15119
-2.11334
-2.13666
-2.14117
-2.14215
-2.13041
-2.1316
-2.09561
-2.05548
-2.07486
-3.03098
-3.04414
-3.04201
-2.06811
-2.07686
-2.80387
-2.11923
-2.12161
-2.10968
-2.12192
-2.83507
-2.12648
-4.17141
-2.10462
-3.07966
-3.07884
-2.1298
-3.14638
-2.11224
-3.05675
-2.11396
-3.05135
-3.07191
-2.12672
-2.13308
-3.06137
-3.08716
-3.09218
-3.08025
-2.1122
-3.09021
-2.08283
-4.1697
-4.1728
-2.10344
-4.17393
-2.10391
-2.11026
-4.01673
-3.03712
-3.61887
-3.62066
-3.5965
-3.61508
-3.05973
-2.00912
-3.08571
-2.04173
-2.01731
-3.06573
-2.03322
-2.01614
-3.06704
-1.99157
-1.97008
-1.99849
-2.0132
-1.99907
-1.98644
-1.97633
-1.98491
-1.99387
-4.02441
-3.17242
-2.00683
-4.00959
-3.15571
-2.01303
-2.00156
-2.04805
-3.09279
-2.03535
-3.06667
-3.0816
-3.08518
-2.04589
-2.05303
-2.11554
-3.40539
-2.08943
-3.08077
-2.10662
-3.40894
-2.09652
-3.37915
-3.09928
-2.13705
-2.1337
-2.1105
-2.12074
-3.09227
-3.05977
-2.12476
-2.12391
-2.12182
-3.08292
-3.40258
-2.92271
-2.92992
-2.11861
-2.12207
-3.0589
-2.28304
-3.08595
-3.08241
-2.28749
-2.28156
-3.48448
-2.07187
-2.06583
-2.09165
-2.0831
-2.09832
-2.09489
-2.08722
-2.08164
-2.07518
-2.09026
-3.10625
-2.07704
-3.09915
-3.11111
-3.10325
-3.07225
-3.02906
-2.10297
-3.07983
-3.01426
-2.1186
-3.03437
-3.49016
-3.03491
-2.27083
-2.33467
-2.33313
-2.3419
-3.03991
-3.04798
-2.29863
-2.29726
-2.31005
-2.0766
-3.10942
-2.09479
-2.99693
-3.1144
-3.11274
-3.1176
-3.2533
-2.08769
-2.30904
-2.06641
-2.37732
-2.38678
-2.38958
-2.0803
-2.08046
-2.11052
-3.01396
-2.11812
-2.39659
-2.4031
-2.39895
-3.02792
-3.0074
-3.01648
-3.03064
-2.05995
-2.05995
-2.06899
-3.04331
-3.0336
-2.06927
-2.07161
-2.07589
-2.05425
-3.21884
-4.25241
-2.52973
-2.05603
-2.06808
-2.05105
-2.04656
-3.00588
-2.03413
-2.04168
-2.04779
-2.0721
-2.05328
-2.03525
-2.53442
-2.02265
-2.53529
-4.01551
-4.00442
-2.02416
-2.01341
-2.07498
-2.58713
-2.57114
-2.04657
-2.05686
-2.07525
-2.59076
-2.57297
-2.07936
-2.08946
-2.06707
-2.05656
-2.06654
-2.08203
-2.06474
-2.07829
-2.58312
-2.04548
-2.96973
-2.00496
-2.03629
-2.0502
-2.97454
-2.99151
-2.99007
-1.9959
-2.04263
-2.01625
-2.02794
-1.99051
-2.02354
-2.0088
-2.63605
-2.0281
-2.64027
-3.04856
-2.65451
-3.72782
-3.73111
-3.72654
-3.73138
-3.72888
-3.25957
-2.04785
-3.74614
-3.74757
-3.08561
-3.74588
-3.7037
-2.00375
-3.70466
-2.05146
-2.97169
-3.24428
-3.70978
-3.70875
-2.97758
-3.70391
-3.70428
-2.04666
-3.09697
-4.98725
-2.98098
-3.00443
-3.00052
-4.97475
-3.26257
-1.83821
-3.23347
-3.75581
-3.76538
-3.75781
-1.89243
-1.92495
-1.88866
-1.92069
-1.88214
-1.89917
-1.90641
-1.89932
-1.82318
-1.76683
-1.79155
-1.82217
-1.78778
-1.8088
-1.80473
-1.77288
-4.98492
-4.97677
-4.98664
-1.88733
-1.90399
-3.77081
-2.82355
-2.8263
-1.7859
-3.04477
-1.78343
-3.0457
-1.77152
-3.03154
-2.98662
-1.76983
-1.78629
-1.82102
-1.82737
-1.76349
-1.811
-1.81672
-1.83072
-1.81407
-1.8781
-1.8481
-1.82744
-3.0519
-1.85199
-3.01267
-3.05243
-1.84616
-1.91896
-1.94313
-1.93936
-1.88449
-1.914
-1.9249
-1.95047
-1.93345
-1.93222
-1.91304
-1.8949
-1.8822
-1.91385
-2.96937
-3.07489
-3.0238
-3.03155
-2.82899
-1.82685
-3.03079
-3.76017
-3.77789
-3.03548
-4.77601
-4.79241
-3.02743
-3.04165
-1.83845
-3.09504
-1.88296
-4.77474
-4.80989
-4.79971
-3.10197
-1.89106
-1.83641
-1.80731
-4.64773
-1.90329
-4.66713
-3.11351
-2.99726
-1.92225
-1.89406
-3.08939
-3.01252
-3.08593
-1.86728
-1.90228
-1.86383
-1.92758
-3.11103
-1.88978
-1.87261
-1.91175
-1.88072
-1.6159
-4.66421
-1.68799
-1.67475
-4.63416
-4.64755
-1.64983
-1.6538
-2.96055
-1.41493
-1.49979
-3.03064
-1.53349
-3.07014
-3.08543
-1.49218
-1.56643
-2.87539
-1.63796
-1.63312
-2.87296
-2.87982
-1.61952
-1.59498
-1.70937
-2.87932
-3.00644
-2.8468
-2.84993
-1.73173
-2.85198
-1.67657
-1.59678
-3.02433
-3.00216
-3.02386
-3.02977
-1.60636
-1.64771
-3.49093
-1.58877
-3.03632
-3.02903
-3.05659
-3.04235
-3.04856
-3.50079
-3.06858
-1.65217
-4.02529
-1.54832
-1.66025
-1.64199
-1.63417
-1.63402
-1.68816
-1.59162
-1.64717
-1.56715
-1.6301
-1.66032
-3.10933
-1.60366
-1.61015
-3.08849
-4.05112
-1.7535
-4.0534
-4.03532
-3.91701
-3.09364
-3.08115
-1.69439
-3.91146
-1.66482
-3.04768
-3.92149
-3.93859
-3.94003
-1.6747
-3.92313
-3.72288
-1.71541
-3.79423
-3.78392
-3.80233
-3.79295
-3.73498
-3.73217
-1.70936
-1.7647
-3.73434
-1.74585
-3.73199
-1.7597
-3.72973
-1.74297
-3.71945
-1.73045
-3.06849
-3.08022
-3.71712
-3.69605
-3.70718
-1.78941
-1.74786
-1.77917
-3.71421
-1.78751
-1.78339
-1.72855
-1.76031
-1.76505
-3.74736
-3.10404
-2.92237
-3.747
-3.74526
-1.8123
-3.08031
-1.89073
-3.05685
-3.70851
-1.90149
-1.88649
-1.90929
-3.74653
-4.38672
-1.81696
-4.40006
-1.88599
-1.84604
-1.84355
-1.864
-1.85886
-1.83898
-4.38571
-4.41277
-1.91888
-1.91631
-1.91857
-4.40509
-1.87759
-4.49408
-2.03657
-2.01488
-2.05324
-3.01343
-3.07705
-2.0048
-2.03667
-2.05149
-2.06637
-2.08885
-3.05961
-2.09701
-2.08454
-2.07851
-3.00477
-3.09045
-2.0242
-1.99251
-3.12
-2.03927
-4.48339
-2.02269
-4.27374
-2.99018
-2.08109
-2.11194
-2.09875
-2.07841
-2.08788
-2.09984
-2.09797
-2.08367
-4.30113
-2.06439
-2.06205
-2.08611
-2.07548
-2.06433
-4.29974
-4.27249
-4.2868
-2.06548
-2.06794
-2.09025
-2.07997
-3.07297
-4.98952
-4.96825
-2.06575
-2.04726
-2.04028
-3.95055
-3.11639
-2.04478
-2.04306
-2.95651
-2.04428
-2.06244
-4.98525
-2.94542
-2.0288
-2.04477
-4.96671
-4.98335
-1.9622
-3.73952
-1.97487
-2.00779
-3.74081
-3.72804
-1.9836
-1.97695
-1.94534
-1.9273
-1.97787
-3.73022
-3.69531
-3.72277
-1.96169
-1.94887
-2.01083
-2.04068
-2.03161
-2.00494
-2.02598
-2.04039
-2.02482
-2.03222
-2.95631
-3.72342
-3.72424
-3.9425
-3.85102
-3.72277
-1.96227
-4.10595
-4.11287
-2.94467
-2.99371
-3.84794
-1.98264
-1.97194
-3.723
-3.67986
-3.69279
-3.00339
-1.9497
-3.72598
-1.94979
-3.70605
-1.95791