/*--------------------------------*- C++ -*----------------------------------*\
| =========                 |                                                 |
| \\      /  F ield         | OpenFOAM: The Open Source CFD Toolbox           |
|  \\    /   O peration     | Version:  5.0                                   |
|   \\  /    A nd           | Web:      www.OpenFOAM.org                      |
|    \\/     M anipulation  |                                                 |
\*---------------------------------------------------------------------------*/
FoamFile
{
    version     2.0;
    format      ascii;
    class       volVectorField;
    location    "0.5";
    object      wallShearStress;
}
// * * * * * * * * * * * * * * * * * * * * * * * * * * * * * * * * * * * * * //

dimensions      [0 2 -2 0 0 0 0];

internalField   uniform (0 0 0);

boundaryField
{
    septal
    {
        type            calculated;
        value           nonuniform List<vector> 
7808
(
(-8.28566e-06 2.99975e-06 -2.83666e-06)
(-8.51987e-06 2.16092e-06 -1.04091e-06)
(-6.37691e-06 6.0258e-06 1.42278e-06)
(-5.74662e-06 5.30483e-06 -3.0749e-07)
(-5.07119e-06 -2.64452e-06 -1.72361e-06)
(-8.01484e-06 2.79231e-06 -1.63739e-06)
(-8.09948e-06 3.03409e-06 -1.68437e-06)
(-8.54428e-06 1.11947e-06 -1.92872e-06)
(-6.41469e-06 -2.49548e-06 -6.77737e-07)
(-9.89203e-06 2.6115e-06 -1.41854e-06)
(-8.22998e-06 -3.93614e-06 3.97499e-06)
(-8.1699e-06 2.54196e-06 -2.9546e-06)
(-7.34217e-06 5.03865e-06 3.40385e-06)
(-8.09676e-06 2.22461e-06 1.81632e-06)
(-9.18781e-06 1.43652e-06 1.21233e-06)
(-9.01438e-06 -3.09277e-06 1.40779e-06)
(-8.73077e-06 -3.3655e-06 9.26648e-07)
(-1.14853e-05 -5.92749e-06 -3.02106e-06)
(-1.09977e-05 4.43307e-07 -3.02162e-07)
(-1.25304e-05 3.50135e-06 -3.46374e-06)
(-9.15051e-06 2.64817e-06 8.08042e-09)
(-7.10065e-06 3.33654e-06 -8.63529e-08)
(-9.23098e-06 -3.62616e-06 -2.07632e-06)
(-7.21235e-06 -1.72506e-06 7.24887e-07)
(-5.02649e-06 -1.9636e-06 -6.55039e-07)
(-6.14133e-06 -4.00902e-06 -9.08899e-07)
(-7.97123e-06 2.90558e-06 -1.9258e-06)
(-6.60867e-06 1.78092e-06 -1.83389e-06)
(-7.92881e-06 4.79547e-06 -1.25222e-06)
(-8.68656e-06 -3.19177e-06 -1.66483e-06)
(-7.24647e-06 -2.84494e-06 -4.29942e-07)
(-5.74529e-06 -3.49804e-06 9.91069e-07)
(-7.54778e-06 -6.33651e-07 -2.49354e-06)
(-7.44919e-06 3.52171e-06 -1.33903e-06)
(-8.04089e-06 -3.09931e-06 -2.31588e-06)
(-7.62094e-06 2.90257e-06 -6.08594e-07)
(-6.64735e-06 -2.17326e-06 -1.21345e-06)
(-8.28138e-06 1.91368e-06 6.96632e-07)
(-7.66629e-06 1.69746e-06 1.35695e-06)
(-7.41245e-06 3.10075e-06 1.84914e-06)
(-1.0171e-05 4.42375e-06 -1.86015e-06)
(-9.54895e-06 -1.77416e-06 2.35394e-06)
(-7.11011e-06 1.22312e-06 -2.10189e-07)
(-1.00329e-05 -1.01875e-06 1.09161e-06)
(-6.34731e-06 -1.38054e-06 2.84067e-07)
(-2.84639e-05 2.44079e-05 1.66449e-06)
(-5.76056e-06 -2.95013e-06 -9.49658e-07)
(-6.33596e-06 -5.37384e-06 1.44785e-06)
(-1.30169e-05 -1.19913e-05 -2.32686e-05)
(5.53484e-07 3.53717e-07 5.80575e-06)
(-2.82683e-08 -4.91762e-07 6.64221e-06)
(-3.22264e-06 2.37743e-07 2.46323e-06)
(-4.22574e-06 1.57589e-05 -1.38699e-05)
(-1.27893e-05 5.15722e-05 -3.87593e-05)
(-2.03687e-05 6.1884e-05 -4.89399e-05)
(-8.14934e-06 -1.0986e-06 -2.3811e-06)
(-3.61089e-06 4.76416e-06 -5.87144e-06)
(-2.41855e-07 -4.47885e-07 3.12891e-06)
(-3.61445e-06 -1.27316e-06 2.65859e-06)
(-3.8848e-07 7.46725e-07 7.30697e-06)
(-2.05886e-05 -3.44694e-06 9.24515e-07)
(-3.12597e-05 -1.60223e-05 -2.68841e-06)
(-4.86436e-06 1.02787e-06 -2.35829e-06)
(-1.61674e-06 -1.21683e-06 5.014e-06)
(-2.69678e-06 3.49068e-06 7.93323e-06)
(-1.56939e-06 -3.75772e-06 6.71866e-06)
(-2.22755e-06 -4.79384e-06 7.05598e-06)
(-2.69546e-06 -2.81407e-06 7.02478e-06)
(-4.48401e-06 -1.97831e-06 9.74617e-07)
(-2.96826e-06 2.1411e-06 1.07975e-06)
(-4.78099e-06 1.38378e-06 1.72831e-06)
(-5.68828e-06 8.15613e-07 1.22058e-06)
(-2.07961e-06 1.89149e-06 4.79072e-06)
(-3.21794e-06 3.65938e-07 7.78397e-06)
(-3.41572e-06 -1.18332e-06 6.03916e-06)
(-1.83204e-06 -4.5882e-07 4.04061e-06)
(-1.85199e-06 -2.46379e-06 3.84476e-06)
(-2.24166e-06 -2.09761e-08 5.73134e-06)
(-1.19895e-06 -2.14052e-06 4.5228e-06)
(-5.70869e-06 -2.40544e-06 1.7595e-06)
(-2.21559e-06 -5.39806e-07 -1.52572e-06)
(-1.5463e-05 -9.66726e-06 -1.62523e-06)
(-9.2601e-06 1.69307e-06 -8.88385e-06)
(-1.07996e-05 -7.20999e-06 -3.45654e-06)
(-1.86511e-05 5.63918e-06 -7.5243e-06)
(-1.64227e-05 -4.43885e-06 -2.96689e-06)
(-1.31908e-05 -2.72161e-06 -2.52097e-06)
(-6.29738e-06 -5.77424e-06 -1.8388e-06)
(-1.0257e-05 7.18327e-06 -1.19433e-06)
(-6.66942e-06 -3.84434e-06 -3.31192e-06)
(-6.38428e-06 -4.9938e-06 -4.92258e-06)
(-4.83937e-06 -1.64917e-06 -2.93335e-06)
(-3.71135e-06 -9.20288e-10 -6.86333e-06)
(-1.27294e-05 4.83721e-06 -3.85607e-06)
(-1.40613e-05 1.00367e-05 -4.88615e-06)
(-8.86312e-06 -2.06878e-06 -4.88508e-06)
(-1.07866e-05 -6.35272e-06 -1.3294e-06)
(-1.38213e-05 -4.92724e-06 -4.72954e-06)
(-1.55693e-05 -1.22896e-06 -3.82346e-06)
(-1.06819e-05 -9.53414e-06 -2.40697e-06)
(-1.19428e-05 1.16819e-05 -3.42498e-06)
(-1.58409e-05 -8.74012e-06 -2.25536e-06)
(-1.14787e-05 -1.28839e-05 -2.53951e-06)
(-1.04867e-05 -1.06657e-05 -7.46328e-06)
(-1.72606e-05 5.73178e-06 -5.40352e-06)
(-1.17483e-05 -8.00775e-06 -6.21057e-06)
(-5.23971e-06 -3.5172e-06 -5.94486e-06)
(-8.37075e-06 -1.88943e-06 -8.96396e-06)
(-1.18369e-05 1.05439e-05 -1.16364e-05)
(-1.20018e-05 -6.21316e-06 -1.28017e-05)
(-1.22993e-05 1.24231e-06 -8.98904e-06)
(-1.9709e-05 -7.29788e-06 -1.40244e-05)
(-1.4783e-05 9.2911e-06 -1.11855e-05)
(-3.77272e-06 -2.42611e-06 -4.46899e-06)
(-4.46035e-06 -3.9205e-06 -5.14414e-06)
(-4.98559e-06 -2.78841e-06 -6.80594e-06)
(-3.72714e-06 -3.08546e-06 -4.76981e-06)
(-4.83247e-06 -2.52372e-06 -6.27154e-06)
(-4.67825e-06 3.74256e-06 -4.63563e-06)
(-5.03188e-06 -2.0846e-06 -4.75734e-06)
(-3.79848e-06 -2.45063e-06 -3.91708e-06)
(-4.95749e-06 -2.61287e-06 -4.11329e-06)
(-2.41162e-06 4.27498e-07 -5.2831e-06)
(-6.25464e-06 -2.55156e-06 -7.1844e-06)
(-7.71565e-06 7.55346e-06 -2.62581e-06)
(-1.55813e-05 3.4114e-06 -6.12154e-06)
(-7.54114e-06 6.37956e-06 -8.71859e-06)
(-1.70504e-05 -5.06574e-06 -1.31554e-05)
(-1.31343e-05 -4.10242e-06 -1.04156e-05)
(-9.95934e-06 6.96097e-06 -9.13541e-06)
(-9.47069e-06 -4.01971e-06 -6.7751e-06)
(-1.0448e-05 -1.14158e-06 -8.41521e-06)
(-6.61411e-06 -2.29724e-06 -7.02973e-06)
(-7.96746e-06 6.04989e-06 -6.50355e-06)
(-9.76617e-06 -7.04126e-06 -4.13568e-06)
(-6.66899e-06 -7.29286e-06 -4.64545e-06)
(-8.5624e-06 -8.73614e-06 -6.78554e-06)
(-1.45592e-05 2.60897e-06 -4.48457e-06)
(-6.24629e-06 5.4769e-07 -1.2382e-05)
(-2.99743e-06 -1.69757e-06 -1.71262e-06)
(-6.11194e-06 -5.40899e-07 -2.78065e-06)
(-6.6135e-06 -2.50559e-06 -1.79417e-06)
(-3.18606e-06 -3.71201e-06 -1.06614e-06)
(-3.63241e-06 -1.30387e-06 -1.48438e-06)
(-3.11526e-06 -2.39389e-06 -1.28637e-06)
(-4.97665e-06 -1.75405e-06 -2.03645e-06)
(-4.3664e-06 1.20718e-06 -1.28406e-06)
(-3.5718e-06 -5.6456e-07 -3.59397e-07)
(-4.96918e-06 -1.28304e-06 -2.35465e-06)
(-6.2948e-06 6.88365e-07 -2.56144e-06)
(-5.72351e-06 4.01415e-07 -1.60409e-06)
(-6.25056e-06 -1.08177e-06 -2.34059e-06)
(-4.41664e-06 -3.85056e-06 -9.87742e-07)
(-4.49977e-06 1.53701e-07 -1.79398e-06)
(-5.83174e-06 -9.87052e-07 -1.87908e-06)
(-4.74775e-06 -1.09126e-06 -1.57144e-06)
(-6.08601e-06 -2.27014e-06 -1.67323e-06)
(-4.59474e-06 1.92969e-06 -1.05246e-06)
(-3.86856e-06 -4.96069e-08 -1.59294e-06)
(-5.11979e-06 -1.30967e-06 -2.67598e-06)
(-6.61155e-06 2.76798e-06 -1.90935e-06)
(-6.2462e-06 1.29894e-07 -8.17653e-07)
(-7.25074e-06 -2.40508e-06 -2.3686e-06)
(-6.15637e-06 3.10528e-07 -2.1598e-06)
(-7.88797e-06 4.68666e-07 -2.62907e-06)
(-5.03299e-06 4.29972e-06 -1.47754e-06)
(-5.83532e-06 -4.90364e-07 -1.8208e-06)
(-4.46826e-06 -3.29748e-06 -2.41093e-06)
(-3.38524e-06 4.76645e-06 -1.65124e-06)
(-4.30005e-06 1.3038e-06 -7.76377e-07)
(-2.85246e-06 -3.47877e-06 -1.14154e-06)
(-5.18129e-06 -3.65087e-07 -3.0797e-06)
(-5.66857e-06 -2.2228e-06 -2.07483e-06)
(-5.41244e-06 7.73874e-07 -1.7079e-06)
(-4.36729e-06 -2.19987e-06 -1.67412e-06)
(-7.31914e-06 -4.58076e-07 -2.92828e-06)
(-4.18536e-06 2.67733e-06 -2.02479e-06)
(-4.99033e-06 -1.74905e-06 -2.82527e-06)
(-5.05818e-06 -5.17074e-06 -2.03412e-06)
(-4.60596e-06 -4.36767e-06 -2.15203e-06)
(-6.52473e-06 2.20859e-06 -2.33681e-06)
(-5.68303e-06 -8.72561e-07 -2.9911e-06)
(-7.20354e-06 -1.29182e-06 -3.65857e-06)
(-4.35565e-06 -4.9035e-06 -1.74261e-06)
(-5.26006e-06 2.469e-06 -1.39333e-06)
(-5.39717e-06 -7.85041e-07 -3.03632e-06)
(-4.47165e-06 3.79507e-07 -1.54467e-06)
(-5.98007e-06 1.43729e-06 -1.77615e-06)
(-3.69357e-06 -3.11212e-06 -1.27507e-06)
(-7.43561e-06 -2.68902e-06 -3.13481e-06)
(-6.33138e-06 4.23022e-06 -1.26132e-06)
(-6.88689e-06 -1.60044e-06 -3.03745e-06)
(-7.25837e-06 6.93967e-07 -3.85324e-06)
(-3.62537e-06 -2.16597e-06 -1.4313e-06)
(-6.85584e-06 1.78571e-06 -2.76045e-06)
(-6.57332e-06 -2.61264e-06 -1.78543e-06)
(-4.82135e-06 3.63297e-06 -1.42359e-06)
(-4.10746e-06 -4.94697e-06 -1.20134e-06)
(-4.79207e-06 -4.17048e-06 -1.45923e-06)
(-5.49367e-06 1.77505e-06 -1.81968e-06)
(-4.80941e-06 -2.54673e-06 -1.13728e-06)
(-4.45833e-06 -7.74768e-07 4.13429e-06)
(-4.79653e-06 -7.48523e-07 2.50137e-06)
(-3.18566e-06 -1.28579e-06 3.54921e-06)
(-4.15575e-06 2.24358e-06 4.29302e-06)
(-5.94251e-06 -5.81075e-07 3.8461e-06)
(-7.31538e-06 1.01603e-06 3.30752e-06)
(-6.08808e-06 -3.78981e-06 3.90684e-06)
(-4.68871e-06 3.21481e-06 3.10718e-06)
(-4.29444e-06 -1.14927e-06 2.30601e-06)
(-5.35018e-06 -2.81042e-07 2.82744e-06)
(-3.78034e-06 1.47088e-06 3.49207e-06)
(-3.32938e-06 2.74148e-06 3.24611e-06)
(-4.48551e-06 -1.27906e-06 4.99601e-06)
(-4.17637e-06 -4.46872e-06 5.49608e-06)
(-4.72246e-06 -1.50947e-06 4.67523e-06)
(-6.77998e-06 1.49182e-06 4.31969e-06)
(-4.25316e-06 -1.10803e-06 4.38543e-06)
(-6.38071e-06 -4.12042e-06 4.1863e-06)
(-5.00532e-06 -6.47976e-07 2.49578e-06)
(-4.97406e-06 2.25212e-06 5.3502e-06)
(-3.10069e-06 -2.69397e-06 5.83732e-06)
(-3.97039e-06 2.22672e-06 5.6115e-06)
(-4.53453e-06 5.67428e-07 3.38933e-06)
(-2.70834e-06 -2.46249e-06 5.65654e-06)
(-6.39548e-06 -1.99038e-06 4.0223e-06)
(-5.2566e-06 5.42184e-08 3.55682e-06)
(-6.72349e-06 3.00634e-06 3.54249e-06)
(-6.0276e-06 6.06372e-07 3.17568e-06)
(-7.1636e-06 -3.20795e-06 2.75558e-06)
(-6.37027e-06 -4.96934e-06 4.87076e-06)
(-6.55011e-06 -2.01414e-06 2.63394e-06)
(-6.0616e-06 -7.1073e-07 2.33672e-06)
(-5.38064e-06 2.92345e-06 3.57671e-06)
(-4.28986e-06 -1.67544e-07 4.75324e-06)
(-4.77471e-06 2.11677e-06 6.37476e-06)
(-4.24995e-06 5.36066e-06 3.05431e-06)
(-6.20369e-06 -1.07338e-06 3.05016e-06)
(-6.87029e-06 -2.60856e-07 3.90103e-06)
(-2.54351e-06 3.50655e-06 2.07792e-06)
(-6.77537e-06 1.11076e-06 4.57448e-06)
(-5.39871e-06 1.63326e-06 2.64467e-06)
(-6.63606e-06 -3.93535e-06 4.12952e-06)
(-1.96548e-06 1.04644e-06 4.53901e-06)
(-1.60092e-06 5.99047e-07 4.33158e-06)
(-1.40162e-06 -2.97303e-06 5.65105e-06)
(-1.56581e-06 -3.78615e-06 5.01809e-06)
(-3.01384e-06 -1.86542e-06 2.32774e-06)
(-2.82401e-06 2.31272e-06 2.52087e-06)
(-2.25269e-05 3.56761e-06 2.04943e-06)
(-1.48237e-05 -1.40288e-05 3.03543e-06)
(-1.35128e-05 -9.59567e-06 5.69631e-06)
(-1.70825e-05 -1.31908e-05 3.09053e-06)
(-2.42082e-05 -5.62335e-06 -3.06257e-06)
(-2.16845e-05 1.49758e-05 2.68155e-06)
(-2.00081e-05 -3.63583e-06 5.76392e-07)
(-5.32795e-06 1.69008e-06 -1.45834e-06)
(-6.55886e-06 1.95439e-06 -2.26606e-06)
(-5.26081e-06 1.61165e-06 -1.49971e-06)
(-5.36466e-06 -2.00515e-06 -1.78111e-06)
(-4.34699e-06 3.50106e-06 -1.67959e-06)
(-6.18181e-06 3.52486e-06 -2.06884e-06)
(-5.91754e-06 3.23618e-06 -2.3759e-06)
(-6.48886e-06 -2.09442e-06 -2.25937e-06)
(-6.9103e-06 2.43267e-06 -1.27364e-06)
(-6.06024e-06 9.70988e-07 -1.91155e-06)
(-4.85599e-06 -2.05119e-06 -1.38045e-06)
(-6.32903e-06 -2.97704e-06 -2.89258e-06)
(-4.8224e-06 -3.1697e-06 -2.09183e-06)
(-7.48621e-06 -1.90292e-06 -2.7896e-06)
(-6.58715e-06 2.73486e-06 -2.02354e-06)
(-7.18496e-06 -1.62264e-06 -2.35949e-06)
(-7.61028e-06 -9.2777e-07 -2.66303e-06)
(-7.33371e-06 2.19472e-06 -2.39169e-06)
(-5.16976e-06 3.89431e-06 -2.26277e-06)
(-4.33732e-06 3.32083e-07 -2.54049e-06)
(-4.57428e-06 1.49405e-06 -3.04787e-06)
(-5.02979e-06 -1.83237e-06 -1.64483e-06)
(-4.03892e-06 2.98185e-06 -1.49434e-06)
(-3.99973e-06 5.31259e-07 -2.31468e-06)
(-3.00001e-06 2.964e-07 -1.83071e-06)
(-3.68849e-06 -2.05772e-06 -1.44311e-06)
(-3.34844e-06 1.736e-06 -1.41362e-06)
(-5.23276e-06 -9.02214e-07 -2.63675e-06)
(-3.8715e-06 3.1302e-06 -2.69818e-06)
(-7.24895e-06 1.28289e-06 -3.45944e-06)
(-3.96386e-06 2.09195e-06 -3.34772e-06)
(-3.82666e-06 1.91537e-06 -1.37438e-06)
(-5.6088e-06 2.65194e-06 -2.02687e-06)
(-5.34586e-06 -1.47235e-06 -2.47964e-06)
(-4.05756e-06 2.2699e-06 -1.60938e-06)
(-4.9126e-06 1.98214e-06 -1.95968e-06)
(-4.09957e-06 4.38286e-06 -2.14056e-06)
(-5.19994e-06 -6.43322e-07 -3.01187e-06)
(-5.77139e-06 1.21323e-06 -2.96966e-06)
(-5.46877e-06 3.26712e-06 -3.34408e-06)
(-4.72139e-06 5.31557e-06 -2.49234e-06)
(-7.69049e-06 -1.67016e-06 -2.42158e-06)
(-5.51217e-06 -2.31559e-06 -2.82176e-06)
(-4.65712e-06 3.86735e-06 -2.02038e-06)
(-6.77062e-06 -9.66765e-07 -3.31332e-06)
(-4.68066e-06 -4.82938e-07 -2.46655e-06)
(-5.07239e-06 -2.97196e-06 -2.7583e-06)
(-6.04449e-06 -2.18899e-06 -1.9059e-06)
(-5.30111e-06 -2.83957e-06 -2.15623e-06)
(-6.08546e-06 2.80117e-06 -2.56034e-06)
(-6.19207e-06 -1.93577e-06 -3.32864e-06)
(-5.65981e-06 -2.94046e-06 -2.2049e-06)
(-8.0213e-06 1.57696e-06 -3.30198e-06)
(-6.08359e-06 2.93948e-06 -1.96827e-06)
(-5.04436e-06 -4.0011e-06 -2.53815e-06)
(-5.43892e-06 -1.48865e-07 -1.96293e-06)
(-6.8141e-06 2.51912e-06 -2.31197e-06)
(-7.3127e-06 -6.57961e-07 -2.43548e-06)
(-7.93431e-06 -2.12452e-06 -2.65732e-06)
(-5.12009e-06 -5.0021e-06 -2.58339e-06)
(-6.1089e-06 2.4374e-06 -2.32102e-06)
(-5.20494e-06 2.28654e-06 -2.90214e-06)
(-4.3413e-06 4.46239e-06 -2.48632e-06)
(-7.30505e-06 -6.66898e-06 -8.71655e-06)
(-7.47562e-06 -5.56054e-06 -9.54048e-06)
(-4.84548e-06 -7.93046e-07 -5.32192e-06)
(-8.71473e-06 -4.98577e-06 -8.98686e-06)
(-7.95267e-06 -5.41631e-06 -7.32855e-06)
(-7.10728e-06 1.16886e-06 -1.02621e-05)
(-5.04705e-06 5.5145e-06 -6.83821e-06)
(-3.97174e-06 6.19644e-06 -8.28226e-06)
(-6.06194e-06 -3.74543e-06 -1.12607e-05)
(-9.94045e-06 2.11998e-06 -1.00452e-05)
(-7.26373e-06 -3.42043e-06 -1.16644e-05)
(-7.29513e-06 -8.30029e-06 -1.2032e-05)
(-3.9612e-06 2.86686e-07 -6.25858e-06)
(-3.74987e-06 2.29422e-06 -4.32897e-06)
(-6.12068e-06 -2.54693e-06 -6.20027e-06)
(-2.48809e-06 -3.97572e-06 -1.00753e-05)
(-2.35272e-06 -3.57755e-06 -5.47797e-06)
(-3.11598e-06 -6.89258e-07 -3.25403e-06)
(-3.57982e-06 1.22682e-07 -4.42023e-06)
(-2.37555e-06 3.51544e-06 -1.19436e-05)
(-5.28674e-06 -3.11087e-06 -9.58129e-06)
(-1.87985e-06 -5.67748e-06 -5.10532e-06)
(-5.17257e-06 2.31637e-06 -7.79545e-06)
(-3.16282e-06 -1.98201e-06 -6.40111e-06)
(-3.37274e-06 -3.37544e-06 -6.88486e-06)
(-4.10194e-06 -4.85371e-08 -3.98305e-06)
(-8.34005e-06 1.73992e-06 -1.03386e-05)
(-6.52633e-06 -1.61854e-06 -3.29343e-06)
(-4.58101e-06 -4.75595e-06 -6.56924e-06)
(-4.62727e-06 6.6205e-06 -5.15087e-06)
(-8.48631e-06 -3.07566e-06 -1.04655e-05)
(-8.91817e-06 2.49308e-06 -8.86627e-06)
(-3.75509e-06 -2.58745e-06 -5.7045e-06)
(-7.81574e-06 -2.73769e-06 -7.4754e-06)
(-6.39569e-06 6.27375e-06 -6.74297e-06)
(-7.31765e-06 -6.32863e-06 -6.6941e-06)
(-3.99399e-06 -7.49495e-06 -6.11963e-06)
(-4.05403e-06 3.57035e-06 -7.77552e-06)
(-3.9118e-06 -2.39234e-06 -3.23908e-06)
(-3.57812e-06 -3.70666e-06 -6.30011e-06)
(-8.66182e-06 3.20054e-06 -1.60437e-06)
(-5.96759e-06 -1.51399e-06 -1.02173e-05)
(-5.11912e-06 2.58902e-06 -1.03948e-05)
(-4.72753e-06 7.56611e-06 -7.25314e-06)
(-6.67898e-06 6.96778e-07 -7.81554e-06)
(-4.25772e-06 3.27105e-06 -4.54881e-06)
(-5.3803e-06 1.13468e-06 -7.97142e-06)
(-8.2115e-06 8.32039e-07 -7.77833e-06)
(-5.22615e-06 8.3566e-06 -7.52318e-06)
(-1.12008e-05 3.46268e-06 -1.12753e-05)
(-7.83559e-06 -7.59115e-06 -9.07042e-06)
(-3.56344e-06 3.94336e-06 -7.05946e-06)
(-4.32636e-06 -4.34199e-06 -4.44669e-06)
(-4.86987e-06 -1.72852e-06 -7.20515e-06)
(-5.84813e-06 1.30672e-07 -7.81106e-06)
(-4.72641e-06 -1.15e-06 -1.84257e-06)
(-3.18073e-06 3.06576e-06 -1.96266e-06)
(-4.94771e-06 -4.15576e-06 -6.55618e-06)
(-5.49319e-06 -3.02681e-06 -5.89654e-06)
(-3.19135e-06 3.15189e-07 -4.1887e-06)
(-5.40067e-06 2.42216e-06 -3.33156e-06)
(-2.71459e-06 -2.48714e-07 -5.09357e-06)
(-6.71481e-06 -9.9703e-07 -8.69337e-06)
(-2.16396e-06 -3.00884e-06 -2.77845e-06)
(-4.41496e-06 -1.65076e-06 -5.2189e-06)
(-2.1024e-06 -2.23889e-06 -2.2668e-06)
(-2.8305e-06 -2.03768e-06 -3.42123e-06)
(-3.86746e-06 -4.81868e-07 -5.06872e-06)
(-4.4119e-06 7.97186e-07 -3.33725e-06)
(-3.53176e-06 -1.17237e-08 -2.61156e-06)
(-2.54356e-06 -2.91652e-06 -2.67947e-06)
(-2.80778e-06 -2.78328e-06 -3.156e-06)
(-3.5169e-06 -7.56595e-08 -4.83278e-06)
(-4.91126e-06 -4.83095e-06 -5.57207e-06)
(-3.06811e-06 1.54471e-06 -3.38181e-06)
(-5.56657e-06 5.69913e-07 -4.13046e-06)
(-2.59558e-06 8.38365e-07 -3.15711e-06)
(-4.04734e-06 -2.99586e-06 -4.38029e-06)
(-5.1066e-06 -2.23124e-06 -5.65761e-06)
(-3.21226e-06 7.71823e-07 -4.58313e-06)
(-5.62672e-06 2.00886e-06 -4.73748e-06)
(-4.59882e-06 1.35038e-06 -6.19892e-06)
(-1.98478e-06 -2.20272e-07 -2.13891e-06)
(-3.42324e-06 -9.80612e-07 -3.68137e-06)
(-2.44049e-06 -1.97184e-06 -2.52108e-06)
(-1.98241e-06 -3.32319e-06 -3.36186e-06)
(-4.36948e-06 -4.02471e-06 -2.34409e-06)
(-5.19294e-06 1.29622e-06 -1.98296e-06)
(-2.25588e-06 -3.83329e-06 -2.36601e-06)
(-5.47732e-06 -4.91255e-08 -3.00167e-06)
(-4.76948e-06 -4.22141e-07 -2.18108e-06)
(-3.82189e-06 -1.42194e-06 -2.2742e-06)
(-3.65525e-06 8.66685e-08 -2.20414e-06)
(-2.69396e-06 -9.18301e-07 -2.14136e-06)
(-4.07195e-06 1.92066e-06 -2.53372e-06)
(-5.77145e-06 5.62721e-07 -5.21722e-06)
(-6.01476e-06 -5.78065e-07 -2.64704e-06)
(-3.35899e-06 -1.85612e-06 -3.62598e-06)
(-2.89324e-06 -2.55176e-06 -4.57072e-06)
(-3.97758e-06 3.11021e-06 -5.8371e-06)
(-3.03222e-06 -2.63609e-06 -1.99323e-06)
(-3.01669e-06 -7.39604e-07 -5.59825e-06)
(-4.56707e-06 -1.47747e-06 -3.87548e-06)
(-5.75301e-06 3.37097e-06 -5.21722e-06)
(-3.29335e-06 -3.02292e-06 -4.57733e-06)
(-5.20982e-06 -2.99701e-06 -2.94147e-06)
(-5.21352e-06 2.41699e-06 -6.5733e-06)
(-5.79731e-06 -2.2168e-06 -4.96404e-06)
(-4.35406e-06 2.09268e-06 -2.68344e-06)
(-4.66044e-06 3.86461e-06 -3.61233e-06)
(-5.91072e-06 -2.74295e-06 -5.02014e-06)
(-1.2219e-05 3.66129e-08 1.16733e-06)
(-1.37754e-05 -2.15695e-06 1.13483e-06)
(-1.28335e-05 6.13779e-06 6.01644e-07)
(-7.09192e-06 -9.75632e-06 -3.75955e-07)
(-1.47129e-05 1.1252e-06 1.15622e-06)
(-8.14304e-06 7.56069e-06 1.2167e-06)
(-9.05321e-06 6.81622e-06 -8.3467e-07)
(-1.28592e-05 -4.38432e-06 -2.32531e-07)
(-1.11234e-05 -2.56755e-06 -1.97532e-06)
(-1.20756e-05 -5.55163e-06 -3.13403e-07)
(-5.51058e-06 1.23147e-06 6.11442e-06)
(-7.16506e-07 -8.99013e-07 6.93343e-06)
(-2.57065e-06 -4.4929e-06 4.0785e-06)
(-4.63252e-06 -1.36205e-06 8.41212e-06)
(-4.46859e-06 -4.13414e-06 7.33035e-06)
(-4.54844e-06 -1.94656e-06 5.72171e-06)
(-3.82397e-06 2.16808e-06 5.33815e-06)
(-5.87843e-06 -3.56175e-06 9.92797e-06)
(-3.49595e-06 -1.23597e-06 5.96983e-06)
(-3.3956e-06 -2.49433e-06 5.84439e-06)
(-2.73763e-06 2.98435e-06 5.40026e-06)
(-1.92583e-06 9.00399e-07 4.60172e-06)
(-4.43965e-06 1.28844e-07 7.99369e-06)
(-1.56117e-06 -1.11642e-06 3.08123e-06)
(-1.14302e-06 -3.20702e-06 4.7897e-06)
(1.96096e-07 3.2571e-07 5.04292e-06)
(-2.3063e-06 1.04995e-06 6.83363e-06)
(-6.59158e-07 -8.99804e-07 4.64792e-06)
(-7.5388e-07 -5.73168e-06 4.58846e-06)
(-4.50683e-06 -2.54402e-06 7.1446e-06)
(-3.02213e-06 -2.72401e-06 5.58722e-06)
(-2.77637e-06 1.60155e-07 5.54253e-06)
(-4.73127e-06 -2.92171e-06 7.80783e-06)
(-1.80155e-06 4.51975e-06 6.92053e-06)
(-2.9979e-06 -1.44814e-06 6.35804e-06)
(-2.06496e-06 1.21559e-06 5.78049e-06)
(-2.3257e-06 8.41792e-07 2.67965e-06)
(-8.12187e-07 3.79942e-06 3.34204e-06)
(-2.71415e-06 -6.17211e-06 4.22743e-06)
(-4.29724e-06 -5.5254e-06 5.44129e-06)
(-4.96616e-06 7.53048e-07 7.80138e-06)
(-4.96539e-06 -1.42681e-06 7.34319e-06)
(-1.03839e-05 -3.37587e-06 5.22922e-06)
(-1.18548e-05 -5.94639e-06 -3.33426e-06)
(-4.09518e-06 -4.07309e-06 -7.98931e-07)
(-8.12096e-06 9.8147e-07 2.91369e-06)
(-2.61627e-06 -1.74637e-06 -4.13689e-06)
(-2.16213e-06 6.58323e-07 -2.6219e-06)
(-1.60642e-06 2.70337e-06 -2.99117e-06)
(-2.60334e-06 -2.45634e-06 -3.33871e-06)
(-1.69144e-06 -7.12626e-07 -2.90487e-06)
(-1.92653e-06 1.72203e-07 -2.91017e-06)
(-3.95172e-06 2.13329e-06 -4.08337e-06)
(-2.00491e-06 2.44482e-06 -2.36052e-06)
(-3.11756e-06 -2.26498e-06 -5.39573e-06)
(-2.35033e-06 -3.1271e-06 -4.14087e-06)
(-2.77652e-06 8.28563e-07 -3.89267e-06)
(-3.19035e-06 2.30885e-06 -3.89934e-06)
(-2.16643e-06 3.16473e-06 -3.03355e-06)
(-3.48421e-06 1.50073e-06 -4.20229e-06)
(-3.58419e-06 6.26153e-07 -4.98753e-06)
(-3.49291e-06 -2.75854e-06 -3.12087e-06)
(-2.73389e-06 2.67461e-06 -3.36547e-06)
(-2.68501e-06 -2.91148e-07 -3.55887e-06)
(-2.72117e-06 7.46781e-07 -2.78735e-06)
(-3.08227e-06 1.08495e-07 -3.98701e-06)
(-3.90658e-06 -3.53834e-07 -5.55838e-06)
(-2.90165e-06 -2.68831e-06 -4.31939e-06)
(-3.94939e-06 -1.96263e-06 -2.83567e-06)
(-2.97642e-06 -1.21166e-06 -4.13847e-06)
(-3.52745e-06 -7.68442e-07 -2.87299e-06)
(-2.24942e-06 -3.21947e-06 -4.24782e-06)
(-3.39118e-06 1.40255e-06 -4.21763e-06)
(-5.02355e-06 -1.75093e-07 -5.09301e-06)
(-2.77853e-06 4.16592e-06 -4.31578e-06)
(-2.66496e-06 -2.60332e-06 -3.04452e-06)
(-3.2085e-06 -1.7548e-06 -3.34495e-06)
(-4.22233e-06 1.45732e-06 -2.97203e-06)
(-2.96716e-06 1.1944e-06 -2.29045e-06)
(-2.63271e-06 1.18054e-06 -2.31935e-06)
(-3.17997e-06 -1.17124e-06 -2.47692e-06)
(-5.67507e-06 8.49311e-07 -3.37714e-06)
(-3.77004e-06 -3.47668e-07 -1.31379e-06)
(-3.10517e-06 -1.09805e-06 -3.17575e-06)
(-4.15833e-06 -2.84872e-06 -2.67121e-06)
(-1.55367e-06 1.00203e-08 -1.47084e-06)
(-3.18405e-06 5.84497e-09 -2.36983e-06)
(-2.66636e-06 -4.65259e-07 -2.58899e-06)
(-4.7859e-06 -4.08686e-07 -2.55797e-06)
(-3.99878e-06 2.55425e-06 -3.07477e-06)
(-3.42133e-06 -3.90485e-07 -1.82927e-06)
(-4.14528e-06 -2.37903e-06 -3.3353e-06)
(-1.18209e-05 6.27243e-06 -3.47848e-06)
(-3.44642e-06 -4.11024e-07 -2.60334e-06)
(-2.62781e-06 -1.05115e-06 -2.21743e-06)
(-3.8976e-06 -2.44751e-06 -3.64524e-06)
(-2.80237e-06 2.20705e-06 -2.12942e-06)
(-4.27937e-06 6.15318e-07 -4.37853e-06)
(-3.52567e-06 2.55681e-06 -4.03054e-06)
(-4.20819e-06 2.2699e-06 -4.99044e-06)
(-2.79326e-06 -2.48489e-06 -3.42889e-06)
(-1.50586e-06 2.6162e-06 -4.32674e-06)
(-5.84154e-06 -4.1431e-07 -5.15023e-06)
(-3.90625e-06 3.67621e-06 -3.03009e-06)
(-2.72129e-06 1.04065e-07 -4.84327e-06)
(-3.21496e-06 2.65246e-06 -2.30577e-06)
(-2.79262e-06 1.61729e-06 -2.33397e-06)
(-2.18507e-06 -2.53036e-06 -1.75006e-06)
(-1.24286e-06 1.39512e-06 -2.77176e-06)
(-3.08185e-06 -2.59948e-06 -1.80307e-06)
(-1.46867e-05 7.67197e-06 -4.19e-06)
(-1.61678e-05 -4.16123e-06 -9.2301e-06)
(-1.46702e-05 -5.13215e-06 -4.61735e-06)
(-2.40293e-05 -6.04336e-06 -1.1815e-05)
(-7.48377e-06 -2.72509e-07 1.95383e-06)
(-6.5602e-06 2.63054e-06 5.90002e-07)
(-7.97875e-06 -2.51884e-06 -1.35015e-05)
(-8.17971e-06 -1.72748e-06 -5.68932e-06)
(-1.21066e-05 -4.01973e-06 -7.35888e-06)
(-1.0643e-05 9.20518e-07 -2.40111e-06)
(-8.59019e-06 -8.40949e-06 -1.19676e-05)
(-6.70833e-06 -1.20756e-05 -1.32599e-05)
(-1.57037e-05 9.2198e-06 -8.05421e-06)
(-1.41708e-05 -1.70406e-06 -1.12434e-05)
(-1.32644e-05 7.05784e-06 -5.92468e-06)
(-1.53936e-05 1.01865e-05 -6.04727e-06)
(-1.72243e-05 -5.72692e-06 -7.68141e-06)
(-7.05384e-06 -7.50306e-06 -1.12318e-05)
(-1.34242e-05 7.15008e-06 -4.90437e-06)
(-1.61891e-05 1.4594e-06 -1.29163e-05)
(-7.41129e-06 -3.94125e-06 -6.35524e-06)
(-6.08235e-06 -2.46106e-06 -4.22441e-06)
(-8.5671e-06 -3.6097e-06 -5.05041e-06)
(-8.79839e-06 -3.46882e-07 -1.14132e-06)
(-6.41912e-06 -5.30485e-06 -6.29447e-06)
(-1.29252e-05 -5.66041e-06 -3.91814e-06)
(-8.75483e-06 -5.91459e-06 -3.31038e-06)
(-7.01475e-06 -6.26786e-06 -5.00791e-06)
(-1.18641e-05 7.11913e-06 -5.02182e-06)
(-1.29707e-05 6.51442e-07 -9.34525e-06)
(-8.67568e-06 -6.72496e-06 -3.52424e-07)
(-1.17086e-05 -6.41866e-06 -3.27139e-07)
(-1.02132e-05 -7.86746e-06 -1.70746e-06)
(-1.16825e-05 5.55385e-06 1.98335e-06)
(-1.20171e-05 -6.75628e-06 -2.15375e-06)
(-1.83102e-05 9.743e-06 -5.10715e-06)
(-1.66467e-05 4.44418e-06 -5.46398e-06)
(-1.50074e-05 -1.57679e-06 -4.36951e-06)
(-1.31503e-05 1.09619e-06 -1.01199e-05)
(-1.32761e-05 -4.95416e-06 -7.82553e-06)
(-1.00246e-05 -6.40612e-06 -4.20274e-06)
(-1.10898e-05 -3.84911e-06 -5.43242e-06)
(-1.32999e-05 -2.53208e-06 -1.01529e-05)
(-8.88924e-06 -1.18631e-05 -8.42927e-06)
(-8.30318e-06 -7.30065e-06 -4.36192e-06)
(-1.0081e-05 1.74587e-06 -6.12346e-06)
(-1.36826e-05 -3.50654e-06 -3.57136e-07)
(-9.11464e-06 -1.4226e-06 -3.26427e-06)
(-1.09976e-05 1.03403e-05 -1.14111e-05)
(-1.15754e-05 -2.49578e-06 7.39306e-07)
(-1.03102e-05 3.37759e-06 2.30564e-06)
(-7.5412e-06 5.84519e-06 1.75017e-06)
(-9.98058e-06 5.70569e-06 9.60825e-07)
(-1.05549e-05 -6.86419e-06 1.49572e-06)
(-6.69672e-06 1.75918e-07 -1.34916e-06)
(-5.11638e-06 3.78322e-06 2.31251e-06)
(-6.46048e-06 2.90128e-06 1.8478e-06)
(-1.09123e-05 -7.63344e-07 8.15262e-08)
(-9.90728e-06 -1.28569e-06 -1.22035e-06)
(-1.17772e-05 1.4262e-06 8.53304e-07)
(-7.08131e-06 9.44692e-06 1.31779e-07)
(-1.09859e-05 -2.62236e-06 1.10116e-06)
(-1.2299e-05 -3.41385e-06 -4.48877e-07)
(-1.43897e-05 3.47012e-06 1.11898e-06)
(-8.1954e-06 -6.02733e-06 1.13868e-06)
(-9.3098e-06 6.27809e-06 6.09474e-07)
(-7.85993e-06 1.47668e-06 2.53806e-06)
(-7.59466e-06 3.74612e-06 4.60145e-06)
(-8.59144e-06 -9.6839e-06 -9.60372e-07)
(-8.98077e-06 2.07512e-06 -1.37821e-06)
(-1.00868e-05 -1.25266e-06 9.84841e-07)
(-1.54128e-05 -4.56938e-07 -4.53336e-06)
(-1.40254e-05 6.04236e-07 -3.43712e-06)
(-1.11571e-05 7.0398e-06 -2.98575e-07)
(-7.28727e-06 3.30788e-06 -5.24447e-06)
(-8.36146e-06 -1.01605e-05 -2.50067e-06)
(-8.53065e-06 8.86766e-07 -4.07375e-06)
(-1.25781e-05 1.8484e-06 -2.02188e-06)
(-8.68768e-06 2.96369e-06 -4.58831e-06)
(-7.47786e-06 -5.6826e-06 -4.75484e-06)
(-7.98092e-06 2.65528e-06 -5.0904e-06)
(-4.89004e-06 -2.11322e-08 -3.043e-06)
(-8.10125e-06 5.83025e-06 -1.02697e-06)
(-6.93603e-06 -3.82164e-06 -3.18054e-06)
(-8.66109e-06 -4.546e-06 -3.63765e-06)
(-5.27294e-06 -1.22909e-06 -2.47894e-06)
(-1.04598e-05 8.50354e-06 -3.36467e-06)
(-8.35599e-06 -1.77695e-06 -2.56516e-06)
(-9.38518e-06 1.82952e-06 -1.03443e-06)
(-8.96127e-06 -4.60954e-06 -6.07622e-07)
(-8.36573e-06 1.97346e-06 -2.19871e-06)
(-1.28031e-05 8.59618e-07 -3.98444e-06)
(-6.20448e-06 -1.36128e-06 -2.6229e-06)
(-1.30164e-05 -2.72848e-06 -2.48586e-06)
(-9.044e-06 2.05167e-06 -7.9446e-07)
(-9.21538e-06 5.06115e-06 -1.97211e-06)
(-1.40712e-05 -3.29907e-06 1.1725e-06)
(-1.01393e-05 2.0159e-06 -3.43031e-06)
(-1.40206e-05 -1.71979e-06 -5.69212e-06)
(-8.63602e-06 6.68412e-06 -2.25374e-06)
(-7.48436e-06 -4.433e-06 -1.69655e-06)
(-7.50183e-06 -3.44453e-06 -2.39709e-06)
(-9.63809e-06 -4.28029e-06 -4.73817e-06)
(-1.32242e-05 -2.39786e-08 3.26142e-06)
(-8.91433e-06 1.72482e-06 1.88657e-06)
(-1.19149e-05 4.4078e-06 1.49471e-06)
(-6.80313e-06 -3.06588e-07 -3.27972e-06)
(-1.42174e-05 -2.99526e-06 2.2166e-06)
(-1.09407e-05 -2.79477e-07 2.06393e-06)
(-9.23327e-06 5.36937e-06 -4.87552e-07)
(-7.47581e-06 4.90197e-06 2.14285e-08)
(-1.34658e-05 6.74264e-06 -5.9699e-06)
(-1.03618e-05 1.66951e-07 -3.22936e-06)
(-6.08156e-06 6.17606e-06 -3.47361e-06)
(-8.60835e-06 -3.00854e-06 -4.65367e-06)
(-9.45324e-06 -2.11517e-06 -4.65753e-06)
(-8.38531e-06 9.35598e-07 -4.78488e-06)
(-1.13139e-05 1.75225e-06 -5.91977e-06)
(-4.18018e-06 -6.43937e-06 -1.41824e-06)
(-9.29199e-06 1.96068e-07 -3.90652e-06)
(-7.63344e-06 3.10855e-06 -1.00055e-06)
(-1.00274e-05 -5.00217e-06 1.30579e-06)
(-1.04779e-05 -6.27047e-06 -4.39339e-06)
(-8.84582e-06 -6.29117e-06 -3.82674e-06)
(-9.41013e-06 -6.21083e-07 -4.54873e-06)
(-1.14843e-05 3.06101e-06 -4.86774e-06)
(-8.47792e-06 6.0658e-06 -2.49663e-06)
(-5.50605e-06 -5.38343e-06 -4.4756e-06)
(-1.01057e-05 5.36096e-07 -3.85538e-06)
(-6.55479e-06 5.3902e-06 -1.17894e-06)
(-5.55015e-06 7.14486e-06 1.88023e-07)
(-1.10403e-05 2.90442e-06 3.82063e-07)
(-1.19113e-05 -4.00953e-07 1.42164e-06)
(-1.12426e-05 2.57397e-06 -4.5136e-06)
(-1.03226e-05 5.57118e-06 -3.26272e-06)
(-1.21219e-05 3.20111e-06 -5.04237e-06)
(-6.3383e-06 6.28385e-06 -8.80454e-07)
(-1.07556e-05 -4.89993e-06 -9.31427e-07)
(-4.66758e-06 7.69302e-06 -3.04797e-06)
(-5.19624e-06 -5.17578e-06 -4.48644e-06)
(-6.54139e-06 -1.63892e-07 -2.38549e-06)
(-1.1997e-05 -2.36223e-06 -1.1953e-06)
(-5.21424e-06 -7.43294e-06 9.92771e-07)
(-7.6444e-06 -4.67442e-06 -2.60133e-06)
(-1.09376e-05 -4.21728e-06 1.61697e-06)
(-1.18215e-05 8.03649e-07 4.43083e-07)
(-9.12771e-06 3.70153e-06 4.32514e-07)
(-1.09987e-05 -4.22215e-06 1.80818e-06)
(-7.9892e-06 5.90265e-06 -9.68146e-07)
(-8.96439e-06 -2.39397e-06 1.7999e-06)
(-1.00583e-05 3.78219e-06 -6.08277e-07)
(-4.85854e-06 -1.60965e-06 -2.09745e-06)
(-5.17589e-06 2.69749e-06 -1.27299e-07)
(-9.63541e-06 1.96888e-06 -9.03113e-07)
(-7.76267e-06 -3.24386e-06 -3.83469e-06)
(-6.94589e-06 3.90922e-06 -2.22296e-06)
(-1.15909e-05 -2.17492e-06 6.51823e-07)
(-9.07466e-06 -3.06376e-06 2.4487e-07)
(-8.87514e-06 5.63463e-06 1.39637e-06)
(-8.44491e-06 4.72651e-06 -8.36182e-07)
(-6.24216e-06 5.98578e-06 6.37042e-07)
(-8.48084e-06 2.35838e-06 -2.04433e-07)
(-1.04547e-05 -4.34514e-06 8.23572e-07)
(-6.48958e-06 6.55676e-06 1.28537e-06)
(-6.29609e-06 1.88361e-07 1.93155e-06)
(-1.26303e-05 4.37287e-06 1.00363e-06)
(-8.62961e-06 5.74975e-07 2.86094e-06)
(-6.99985e-06 3.04924e-06 6.2295e-07)
(-1.22173e-05 -1.0256e-06 -1.44968e-06)
(-8.32931e-06 -2.88124e-06 4.67479e-07)
(-8.4862e-06 3.67818e-06 -3.94235e-07)
(-9.24864e-06 6.60581e-06 -7.96374e-07)
(-7.70496e-06 4.40911e-06 -6.21786e-07)
(-7.43971e-06 4.42151e-06 1.47501e-06)
(-1.2019e-05 1.4151e-06 2.95128e-07)
(-7.26748e-06 -1.83398e-06 -3.72641e-07)
(-1.13501e-05 4.07629e-06 -1.38467e-06)
(-1.77161e-06 7.26412e-07 2.69803e-06)
(-2.83295e-07 -1.00217e-06 4.41851e-06)
(-1.72838e-06 1.3315e-06 6.69119e-06)
(-2.54166e-06 2.57036e-06 4.84945e-06)
(-5.70921e-06 4.03172e-06 4.6431e-06)
(-9.56001e-06 7.51458e-07 4.13683e-06)
(-1.08343e-05 1.84687e-06 3.2828e-06)
(-8.53913e-06 -7.60817e-06 4.48558e-06)