/*--------------------------------*- C++ -*----------------------------------*\
| =========                 |                                                 |
| \\      /  F ield         | OpenFOAM: The Open Source CFD Toolbox           |
|  \\    /   O peration     | Version:  5.0                                   |
|   \\  /    A nd           | Web:      www.OpenFOAM.org                      |
|    \\/     M anipulation  |                                                 |
\*---------------------------------------------------------------------------*/
FoamFile
{
    version     2.0;
    format      ascii;
    class       volVectorField;
    location    "0.5";
    object      wallShearStress;
}
// * * * * * * * * * * * * * * * * * * * * * * * * * * * * * * * * * * * * * //

dimensions      [0 2 -2 0 0 0 0];

internalField   uniform (0 0 0);

boundaryField
{
    walls
    {
        type            calculated;
        value           nonuniform List<vector> 
100144
(
(-0.00718178 -0.0269498 -0.00380121)
(0.000468035 -0.00393989 0.00858931)
(-6.90834e-06 1.76045e-05 3.93949e-06)
(-0.00191708 -0.0147919 0.00333742)
(0.00270444 -0.0326409 0.000576448)
(0.000449106 -0.00550145 -0.00162793)
(9.63324e-05 -0.0432813 0.012086)
(-0.00149123 -0.00213742 -0.00109423)
(-0.00113626 -0.00582392 0.000305234)
(-0.00760299 -0.0284782 -0.000321339)
(-0.00544108 -0.021358 0.00820943)
(-0.00329937 -0.0243527 -0.0013156)
(0.00511281 -0.0198135 -0.000981444)
(0.00475885 -0.0162269 0.00122303)
(-0.00165793 -0.0271842 0.000343157)
(0.000320976 0.000819508 -0.000415904)
(-0.00311154 -0.0117897 0.0175048)
(0.0030201 -0.0306901 0.00191868)
(-0.00111265 -0.0285815 -0.0032757)
(-6.12935e-05 -0.00249243 -0.00074372)
(-0.00352092 -0.0150188 0.00154522)
(-0.000743637 -0.0215456 0.000319816)
(-0.000847724 -0.0153923 0.00380617)
(-0.000200351 -0.0263839 -0.0020928)
(0.000258247 0.00332519 0.00223556)
(-0.000121298 0.00287701 0.00245025)
(-0.00124028 0.00305038 0.00171174)
(0.00142975 -0.0329071 -0.00189785)
(-0.000489685 -0.0248849 -0.00202468)
(-0.00185992 -0.00988762 -0.00117248)
(-0.000883165 -0.00898539 -0.0014128)
(0.00139233 -0.0222027 0.00546059)
(0.00435497 -0.0167536 -0.0308538)
(-0.000242842 -0.0179663 -0.00163403)
(0.000784 -0.00190496 -0.00135115)
(-3.69709e-05 -0.00432561 -0.00142715)
(0.000564124 -0.00368981 -0.000994035)
(-3.54768e-06 8.1679e-06 -4.6508e-06)
(0.00190091 -0.0146753 -0.00182891)
(0.000252784 -0.00830147 -0.00163895)
(-7.03485e-05 -0.00329221 -0.0030471)
(-0.00398539 -0.0168373 0.00101358)
(-0.00107796 -0.0202189 0.0010432)
(0.00670965 -0.0556123 0.00180241)
(0.00443727 -0.0181618 0.00258791)
(-0.00934788 -0.0118244 -0.00479901)
(-0.00195665 -0.0177587 -0.0073337)
(0.00158508 -0.0146686 -0.00631819)
(0.00342956 -0.0145161 -0.00617677)
(0.00486723 -0.0192967 -0.00421363)
(-0.00719022 -0.0106546 -0.00420107)
(-7.9464e-06 0.000109979 0.000108033)
(0.00195822 -0.0269926 0.00280045)
(-0.000632531 -0.0030922 -0.00150713)
(0.0119346 -0.0250403 0.00741426)
(0.00853071 -0.0220112 0.00907867)
(0.000925719 -0.0233863 0.00744552)
(0.0110784 -0.023406 0.0105377)
(0.00487082 -0.0192941 0.00780159)
(0.0102405 -0.030883 0.0108311)
(0.0560564 -0.097578 -0.0554805)
(-0.000430004 -0.00141818 0.00124218)
(-0.000196709 -0.00171979 7.78015e-05)
(-0.000254409 -0.000939474 0.00149418)
(-0.000543017 -0.00347726 -0.0012358)
(-0.00720975 -0.0142635 0.0119775)
(0.00209213 -0.0150682 -0.00152403)
(-0.00450237 -0.0577428 0.00555441)
(0.0036218 -0.0156957 0.000970857)
(0.000348906 -0.00876155 -3.17766e-06)
(0.10059 -0.119201 0.387434)
(0.0908664 -0.10726 0.360097)
(0.0829258 -0.10155 0.331823)
(-0.0057634 -0.0238512 0.00250372)
(0.0894141 -0.099265 0.352368)
(3.80603e-05 0.00102734 -7.19263e-05)
(0.000276505 0.000253074 0.000978486)
(0.0108336 -0.0837756 0.0153182)
(-0.00742551 -0.0649773 -0.00554741)
(-0.00323413 -0.0532559 -0.00224159)
(-0.00646451 -0.0680812 -0.00330353)
(-0.00067732 -0.00409537 -0.0162647)
(0.000710138 3.15207e-05 -0.00149088)
(-0.000649641 -0.0049068 -0.000495656)
(0.0133203 -0.0287472 0.0076484)
(0.0119016 -0.0289495 0.00313196)
(-8.79298e-05 -0.000609266 0.000382024)
(-0.000339927 -0.000647132 0.00039968)
(-4.8007e-05 1.91703e-05 -0.000104925)
(-0.00202604 -0.02018 0.0121585)
(-0.00164023 -0.0610094 -0.00783739)
(0.00262385 -0.059396 -0.00940223)
(0.00407743 -0.0578993 -0.00776069)
(0.00339723 -0.0222264 0.00151936)
(-0.00313234 -0.0621177 -0.00842691)
(0.000155786 -0.0120937 0.00171895)
(0.00771196 -0.0702933 0.0139706)
(0.00953883 -0.0731759 0.0166719)
(0.00171385 0.00160024 0.000226592)
(-0.00337523 -0.0116757 -0.00284292)
(0.00117307 -0.0679909 0.010949)
(0.00789781 -0.0253902 0.00475131)
(0.0016956 -0.00143387 -0.000344953)
(0.00130118 -0.000515259 0.000117278)
(0.00175497 -0.00282596 -8.39285e-05)
(0.00187696 -0.00194851 -0.000541775)
(0.00346759 -0.00142873 0.000499546)
(-0.287637 -0.199313 0.90922)
(0.000421577 -0.00151488 0.00148839)
(0.00137054 -0.000691548 -3.81569e-05)
(-0.000212557 -0.00331757 0.00242398)
(0.000197239 -0.00433059 -0.0022139)
(-0.00462256 -0.0120966 0.00660475)
(-0.0169165 -0.0266886 0.0127297)
(-0.00435273 -0.0196791 0.0103701)
(-0.000605405 -0.00711901 0.00206683)
(-0.000357071 -0.0292254 0.00799362)
(-0.00076714 -0.0186178 -0.00131539)
(4.4266e-05 -0.00815946 0.00117164)
(-0.000547943 -0.0625262 0.0109754)
(-0.00319058 -0.0772612 0.0124938)
(-0.00820027 -0.0804656 0.0181718)
(-0.00993581 -0.0748939 0.0132726)
(5.31526e-06 -0.000951353 -0.000523861)
(0.0431012 -0.0297091 0.139466)
(-1.7793e-06 -0.00913004 0.00171732)
(0.000929988 0.00124115 0.00213598)
(0.00128044 0.000107162 0.00272785)
(0.00134645 0.00197169 0.000651426)
(0.00141368 0.00113401 0.0010266)
(0.00120315 -0.00649264 0.000766438)
(8.55398e-05 0.00121246 1.35914e-05)
(-3.33478e-05 0.000848271 7.77461e-05)
(-0.000566945 -0.00655834 -0.000583339)
(4.6888e-05 0.00010588 0.000256534)
(-0.00152582 -0.00645264 0.00089702)
(0.000486197 -0.00725113 -0.00270458)
(-0.26907 -0.178905 0.879546)
(-0.307918 -0.1916 0.910736)
(-0.00292696 -0.00529806 0.00489607)
(0.000117642 -0.0005328 -0.000746471)
(-0.0171546 -0.0813523 -0.00251929)
(-0.0228387 -0.0851104 -0.00759515)
(-0.019547 -0.0819893 -0.0021167)
(-0.0061159 -0.00779194 0.00268055)
(-0.0175038 -0.0820088 -0.00447163)
(-0.00520583 -0.0104597 0.00358624)
(-7.11498e-05 -0.000102135 -0.000226799)
(-0.00215696 -0.00976245 -0.00042322)
(-5.34986e-05 -0.00807195 -0.000172937)
(-0.00178792 -0.00644061 -0.00256637)
(-0.000129154 -0.00121284 -0.00150372)
(0.00369644 -0.0205441 0.0161978)
(-0.00324787 -0.0137163 0.00572878)
(0.000591302 -0.00401011 -0.00339706)
(0.00016389 -0.00298009 -0.00220783)
(-0.000467199 0.000370377 0.00141402)
(0.000886652 -0.00168982 -0.00129153)
(-0.00336237 -0.00590093 0.00217485)
(-0.00427867 -0.00840256 0.00167158)
(-0.00792182 -0.0150461 0.0114733)
(-4.64617e-05 -0.000835544 -0.000565202)
(0.000109459 -0.00248384 0.00119717)
(-0.000110341 0.000224794 0.000789859)
(0.00746806 -0.0248686 0.0144929)
(-6.36029e-05 0.000610254 0.000631411)
(-0.000802827 0.00199051 -0.00202837)
(-0.00994044 -0.191871 1.4905)
(0.001083 -0.00367573 -0.00161544)
(0.00768112 -0.197606 1.48274)
(-0.00222575 -0.181676 1.4767)
(-0.0966267 -0.166379 1.60331)
(-0.000451007 0.00109363 0.00148519)
(-0.000308034 0.000306137 -0.000221657)
(0.00120302 -0.0416242 0.0048321)
(0.00794057 -0.0239835 0.0223481)
(0.0258526 -0.0408742 -0.0283018)
(0.0240553 -0.0437894 -0.0249254)
(-0.00305713 -0.0193163 -0.0130649)
(0.0232392 -0.0451701 -0.0275137)
(-0.00068799 -0.00730389 -0.00217513)
(-0.00140268 -0.0208847 -0.0121393)
(0.00180475 -0.0199087 -0.0133393)
(0.00167727 -0.0044714 0.000161504)
(-0.29099 -0.163279 0.916643)
(0.000715524 0.00126269 -0.00177573)
(-4.72167e-05 0.00122482 -0.00140336)
(-0.0248097 -0.260568 0.910933)
(-0.000313188 0.000329949 0.00172268)
(0.000227911 9.78419e-05 0.00211444)
(-0.000767828 0.000412027 0.0017701)
(-0.000157795 -0.00208819 0.00184261)
(-0.00077248 -0.00731475 -0.00405554)
(0.000641947 -0.00672192 -0.00113997)
(-3.19308e-05 0.000220567 0.000281298)
(-1.84995e-07 0.000755119 0.0015527)
(7.81008e-05 -0.0200099 -0.0128774)
(0.00964058 -0.0349419 -0.0198759)
(-0.00420021 -0.0196078 -0.0211485)
(-0.0130761 -0.0559012 -0.0416066)
(-0.00501975 -0.0251095 0.0236046)
(-0.0069634 -0.0240778 0.0278183)
(0.0184433 -0.0456646 0.00650779)
(0.0208604 -0.0450624 0.00694341)
(0.0205996 -0.0458012 0.00701271)
(0.0176795 -0.0474313 0.00800061)
(2.1701e-05 -0.00237604 0.000873541)
(0.0123708 -0.03681 -0.0241285)
(-0.000855661 -0.00072093 5.44985e-05)
(-6.84962e-05 0.00117778 0.00216173)
(-0.000411369 0.000696849 0.00269702)
(-7.01995e-05 0.000511542 0.00157435)
(-0.000592346 -0.00487788 -0.000646327)
(0.00120171 -0.00298386 0.00102791)
(0.000415751 -0.000949787 0.000430718)
(-0.000280035 -0.00483298 -0.000876342)
(0.00195077 -0.0236193 0.000302335)
(0.000343409 -0.00285247 -0.00114247)
(-0.00623287 -0.0157885 0.004479)
(-0.00569601 -0.0105389 0.00210965)
(-0.00310177 -0.0239917 -0.00185361)
(-0.00309093 -0.0158017 -0.000122729)
(-0.00392943 -0.0223538 -0.00143686)
(-0.000929146 -0.00718808 0.00013885)
(-3.39893e-05 0.000145561 0.000299538)
(-0.00020452 -0.000368126 0.000873312)
(-0.000823894 -0.00920262 -0.00149271)
(0.00146754 -0.0164438 0.00177981)
(0.00843244 -0.00761012 -0.00456564)
(-0.00175619 -0.0018447 -0.00298075)
(-0.000987766 -0.0080622 -0.00158804)
(-0.00152958 -0.00239417 -0.00394958)
(0.00199485 -0.00551654 -7.52137e-05)
(0.00263625 -0.0062149 0.00084364)
(0.00258728 -0.0232581 0.0112603)
(0.00612159 -0.00416808 0.0018205)
(0.00140845 -0.00437186 -0.00256932)
(-0.000102226 -0.00355587 -0.00167313)
(-0.0150897 -0.0170889 -0.0129962)
(-0.000115327 -0.00306967 -0.00101287)
(-0.000171246 0.00075426 0.00160722)
(-0.000919762 -0.00111718 0.00176206)
(2.54435e-05 9.7126e-05 0.000140537)
(-0.0158222 -0.0320047 -0.0056496)
(-0.0141363 -0.0276032 -0.00477853)
(-0.0162787 -0.0323349 -0.00578067)
(-0.015904 -0.0318336 -0.00334624)
(0.00181455 -0.00383439 0.00242316)
(0.00380387 -0.00493355 0.000769996)
(-0.000406387 -0.00105994 0.00108531)
(-5.23311e-05 0.000254413 0.00011468)
(-0.00528872 -0.00735584 0.00144313)
(-0.000148893 5.79609e-05 -0.000195839)
(-0.000607682 -0.0124386 -0.0137477)
(0.00632557 0.0140923 -3.10241e-05)
(0.00446974 -0.00552934 0.00381446)
(0.00424953 -0.00438566 0.00422825)
(0.00500807 -0.00552857 0.00263755)
(0.00116968 -0.0162078 0.0111985)
(-0.000267122 -0.00275453 0.00235708)
(-0.000249238 -0.00309351 0.000247043)
(-0.000760198 -0.0189821 0.00594146)
(0.000479911 -0.00518804 -0.00376629)
(-2.31692e-06 1.41956e-06 -4.44676e-07)
(0.0008284 0.00096775 0.000342406)
(0.00143574 -0.0060685 -0.00311725)
(0.000570309 -0.00898596 -0.00298065)
(0.00659236 -0.0233914 -0.00396083)
(0.00134729 -0.0113879 -0.000923723)
(0.00224532 -0.0110518 -0.000403906)
(0.00293431 -0.0120766 -0.000745961)
(-0.00909462 -0.0225045 -0.0219814)
(-0.00444869 -0.0093609 -0.00793009)
(-0.01001 -0.0276475 -0.00724647)
(-0.00545523 -0.0121314 -0.00525218)
(-0.00395753 -0.0106559 -0.00492577)
(-0.000179481 -0.0037929 -0.00183495)
(-0.00104171 -0.00963717 -0.0031839)
(-0.000754131 -0.00312782 -0.00126144)
(0.0012651 0.00140863 0.000315251)
(-0.00137128 0.00150362 -0.00188627)
(-0.000990174 0.00291839 -0.00239291)
(-0.000315525 0.00128336 -0.00118318)
(-2.7896e-05 -0.00124179 -0.000545965)
(0.000601635 -0.0600919 0.0134672)
(-0.00608588 -0.0733178 0.0145533)
(0.00212281 -0.0641773 0.0154247)
(-0.0127762 -0.0266324 -0.00526127)
(-0.0114646 -0.0250457 -0.00686793)
(-0.00498624 0.00971312 -0.00663832)
(-0.0127203 -0.0274873 -0.00600268)
(-0.0121391 -0.0246416 -0.0060125)
(0.000477857 -0.00954069 0.00198935)
(-0.000600988 -0.000287667 -0.000125107)
(-0.00454807 -0.0174478 -0.0031561)
(-0.000578921 -0.000901738 -0.000252167)
(-1.31817e-06 1.62402e-06 7.69992e-07)
(0.000555435 -0.000534127 -0.00023496)
(4.0231e-06 -0.0173054 -0.00486465)
(0.00173298 -0.00637202 -0.00388902)
(-0.0165897 -0.0402676 0.00492049)
(0.000131697 -0.000194433 -0.000138547)
(-0.00993633 -0.0363432 0.00258339)
(-0.0132546 -0.0392637 0.00293755)
(-0.00190794 -0.00922829 -0.000737608)
(-0.0001246 -0.00367665 -3.85877e-05)
(0.00415012 -0.0224283 0.000696962)
(0.000684847 -0.00488636 0.000710986)
(-0.000836681 -0.00849165 -0.00734421)
(-0.00110635 -0.00551136 -0.00454291)
(-0.00135556 -0.00547531 -0.0051208)
(0.000301649 -0.00246453 5.52721e-05)
(-0.00117665 0.00367228 0.00529899)
(0.000204729 0.00200452 0.00826777)
(-0.00342116 0.00150807 0.00907164)
(-0.000112695 -0.000294507 2.41586e-05)
(-0.00107341 0.00294023 0.0064555)
(0.000617142 -0.0515067 -0.00917128)
(-0.00242987 -0.0580287 -0.00801937)
(0.000577288 -0.0592574 -0.00959585)
(0.00288651 -0.051921 -0.00724482)
(0.00887139 -0.0227875 0.0127845)
(0.0061993 -0.0153942 -0.0309841)
(-0.000608112 -0.00360579 0.00172365)
(0.000813301 -0.00213075 0.00159776)
(-0.000340288 -0.00202338 0.00075915)
(-0.000210715 -0.00129102 0.00126631)
(0.000254865 -0.000486651 5.0824e-05)
(0.00779391 -0.0219319 0.0136635)
(0.0052549 -0.0246435 0.0206312)
(0.0099931 -0.0574481 0.0389812)
(0.00743159 -0.0438212 -0.114284)
(-0.00114618 -0.0169575 0.00182368)
(0.00532144 -0.0601744 -0.0672132)
(0.00782585 -0.00674868 -0.0068815)
(0.0110763 -0.00405146 -0.00787421)
(0.000875006 -0.00440055 0.000974278)
(0.00445599 -0.0478211 -0.115128)
(0.000319569 0.00011179 2.17297e-06)
(0.0102892 -0.0275264 -0.0746689)
(0.00131408 -0.0124115 0.000968275)
(-0.000236705 -0.000749859 0.000697276)
(0.00173585 -0.0467022 -0.119458)
(-0.000439266 -0.00373426 0.00066195)
(-0.000381222 -0.00403138 -0.000612552)
(0.00836635 -0.0604063 0.0226319)
(0.0116214 -0.0417658 0.0185837)
(-0.0240092 -0.0595391 -0.00360278)
(-0.022704 -0.0569426 0.00020209)
(0.000804367 -0.00302669 0.001153)
(0.00334701 -0.0126341 -0.00980661)
(0.000172232 -0.00286986 0.00231542)
(-8.45435e-06 -0.00307956 0.00213142)
(-0.000258252 -0.00140756 0.00182528)
(0.000493586 -0.00599796 -0.00131894)
(-0.00089318 -0.00672196 -0.00296291)
(8.47774e-05 -0.00032317 -0.000408871)
(-0.00117075 -0.00937099 -0.00650611)
(-0.00132154 -0.00520488 -0.00399482)
(0.00190184 -0.00694307 -0.00710275)
(-0.00125448 -0.00466798 -0.00321687)
(-0.00103276 -0.00522843 -0.00441476)
(5.81884e-06 -1.10968e-05 0.00016174)
(-0.000322945 -0.0100202 0.00616463)
(-0.00600721 -0.0105669 -0.0017286)
(0.00260281 -0.0388076 0.0177692)
(0.000112185 -0.00056532 -0.000592977)
(1.05634e-06 3.61635e-05 1.33479e-05)
(0.305081 -0.291731 1.05045)
(0.288092 -0.278991 1.00999)
(-0.00264317 -0.00775389 0.0029242)
(0.00119937 -0.00910301 0.000537038)
(-0.000825462 -0.00253312 0.000567873)
(0.000814321 -0.00492026 7.25717e-05)
(0.00140895 -0.00847878 -0.000454045)
(0.00108952 -0.0102238 0.000951072)
(-2.8161e-05 0.000673159 -0.000443896)
(-0.00785658 -0.0560065 0.00936854)
(-0.00958175 -0.0540155 0.010992)
(0.000294039 -0.03803 0.0074074)
(-0.00522954 -0.0547343 0.00775864)
(-0.0031908 -0.00985235 0.0108396)
(0.00290907 0.00234874 0.000102992)
(0.00480793 -0.0118053 -0.001128)
(0.00143798 -0.00139352 0.00570933)
(0.0107128 -0.0714147 0.0181116)
(0.000304858 -0.000397414 0.00223702)
(0.000329409 -0.00086611 0.00324017)
(0.000221971 -0.00215582 -0.00301835)
(-0.000403686 -0.000581374 0.00109946)
(0.020434 -0.0738377 0.0328793)
(0.301697 -0.304068 1.29462)
(0.0174464 -0.0682464 0.00961674)
(0.000406378 -0.0040622 0.000296184)
(-0.00223298 -0.0513553 -0.00333503)
(-0.000891699 -0.0429887 -0.00436112)
(-0.00290532 -0.0396092 -0.00316065)
(-0.000516263 -0.0411498 -0.004377)
(0.00846962 -0.0198268 0.00731448)
(0.276334 -0.315658 0.968508)
(-0.00971113 -0.0383985 -0.028638)
(-0.000940804 -0.00772756 -0.0012601)
(-0.00460457 -0.0168298 -0.0249335)
(-0.000996363 -0.050521 -0.00599845)
(-0.0164362 -0.02539 -0.0169531)
(0.0114092 -0.0806692 0.0235199)
(-0.0152706 -0.0654535 0.0016727)
(-0.0109745 -0.064556 0.00672892)
(-0.0131891 -0.0688495 0.00679961)
(0.000404225 -0.00784736 -0.000526371)
(-0.00862602 -0.0875875 -0.0293537)
(0.017985 -0.0425283 -0.0115837)
(-0.0026313 -0.0518706 -0.00755456)
(0.00130607 -0.0146135 -0.000410606)
(-0.00557496 -0.0102944 -0.000401147)
(-0.00499629 -0.0470074 -0.00683806)
(-0.00333444 -0.0486543 -0.00765363)
(0.00100059 -0.0195436 0.00155157)
(-3.22233e-05 -0.00375628 0.000606329)
(0.0181582 -0.057033 -0.164485)
(-0.010417 -0.0168944 0.0136441)
(-0.00725608 -0.0171395 0.011624)
(-0.000129714 -0.000431778 -2.78153e-05)
(-0.00112693 -0.00203342 -0.00260004)
(0.0011407 -0.0032454 -0.00475182)
(-0.00179083 -0.0114293 -0.0068192)
(-0.0021265 -0.004824 -0.00353011)
(-0.0109968 -0.0251472 -0.00659227)
(0.00385608 -0.0230258 -0.0296566)
(-7.53475e-05 -0.000450701 -2.53036e-05)
(0.0543764 -0.131077 0.55526)
(0.10497 -0.17804 0.646059)
(0.111705 -0.168814 0.728769)
(0.10508 -0.173757 0.659974)
(0.00669229 -0.0222848 -0.00325751)
(0.0319263 -0.0537812 -0.145999)
(-0.00444072 -0.00560406 -0.00502891)
(-0.0053683 -0.00611998 -0.0057062)
(0.00202137 -0.00486402 0.00180769)
(-0.013127 -0.0411791 0.00786116)
(-0.00368145 -0.00610967 -0.00656929)
(-5.01116e-08 4.55088e-07 -4.07721e-07)
(0.0271072 -0.0224062 0.103681)
(0.000338364 -0.0111843 0.000658491)
(-0.00890746 -0.0635915 0.0145131)
(0.00403959 -0.0751674 0.0128884)
(-0.00436379 -0.0543062 0.0057597)
(0.00198378 -0.0645911 0.00954419)
(-0.00283715 -0.0612805 0.00969349)
(0.000509011 -0.000552175 -0.000473491)
(0.0151283 -0.0270616 0.00498939)
(0.0147398 -0.0275529 0.00709199)
(-2.55742e-05 -0.0003771 0.000432798)
(-0.00043353 0.000134773 -0.00676363)
(-0.00081144 -0.002234 -0.00927572)
(-0.00188417 -0.00337348 -0.0082473)
(-0.000100043 -0.000878989 -0.00755663)
(-0.000113357 -0.000389597 0.000285018)
(0.00107841 -0.00237941 0.00093908)
(0.00013432 0.000285394 0.000111184)
(-5.17178e-05 0.000339482 4.64137e-05)
(7.58732e-05 0.000369563 0.000115483)
(-1.50097e-05 0.000313233 6.77375e-05)
(-0.00515428 -0.00521766 -0.00605758)
(0.00243117 -0.0447793 -0.0244477)
(-0.0027088 -0.0401474 -0.0247155)
(-0.000912639 -0.0412918 -0.0205474)
(-0.000218363 -0.0420228 -0.0255939)
(-0.00570115 -0.00747507 0.00213292)
(-0.00292409 -0.0129268 0.00340529)
(-0.000841033 -0.00903714 3.44657e-05)
(-0.000272485 -0.00231676 0.000204354)
(-0.00290417 -0.0178118 0.00845334)
(-0.00329736 -0.0144027 0.00585172)
(6.20743e-06 -0.0174358 0.00891671)
(-0.00144012 -0.0172358 0.00857778)
(-0.00293686 -0.0136546 0.0106564)
(-0.00696153 -0.0301365 0.00856137)
(-0.00809975 -0.0240026 0.0035811)
(-0.00520119 -0.0138937 0.00216413)
(-0.000532636 -0.0161754 0.00124162)
(0.0123728 -0.0361477 0.00972212)
(0.0209066 -0.0481722 0.00424883)
(0.0192448 -0.0441917 0.00687015)
(0.0234658 -0.050364 0.00510804)
(-0.00033672 -0.0036368 -0.00231352)
(0.000648456 -0.00251839 -0.00195723)
(-0.00216191 -0.00342926 -0.0007727)
(-0.00174501 -0.0040852 0.00176174)
(-0.0041956 -0.00422078 0.00254798)
(-0.00128452 -0.0020985 0.00152107)
(0.00204955 -0.0177649 0.0115318)
(-0.000417931 -0.0131343 0.00892384)
(0.0055969 -0.0301757 0.000905722)
(0.000415833 0.000627761 -0.000351391)
(0.000358818 0.000971117 -0.000319252)
(0.00242133 -0.0359629 0.0020712)
(0.00100063 -0.0327363 0.000887851)
(-0.00463534 -0.0422607 -0.000830732)
(-0.000166722 -0.000892869 -0.000716066)
(-0.0109989 -0.0262281 0.0181676)
(-0.0039052 -0.0358106 -0.000234152)
(2.70906e-05 -0.0119833 0.00458324)
(-0.000484078 -0.00351468 0.00010552)
(-0.000885068 -0.00529845 0.000874217)
(0.000553657 -0.00162306 0.00106049)
(-0.0051273 -0.0761242 0.0106396)
(-0.00954303 -0.0606666 0.00726113)
(0.0128874 -0.0384665 -0.0129214)
(0.0105207 -0.043962 -0.0161332)
(0.0149389 -0.040399 -0.0122445)
(-0.00508092 -0.0251815 0.0110214)
(-0.00172171 -0.012443 0.00867585)
(0.000604037 -0.00322442 -0.00185561)
(1.70139e-05 5.7535e-05 0.000207562)
(-0.00139915 -0.0180229 0.00163529)
(-0.00165137 -0.016846 0.00632791)
(0.00129939 -0.0035487 0.00809771)
(-0.00695333 -0.05979 0.00186231)
(-0.00641373 -0.0668484 0.00231267)
(-0.00324606 -0.0638878 0.00506608)
(-0.00106723 -0.00344295 -0.000420392)
(0.000368137 0.000163974 0.00041334)
(-0.000280972 -0.000241073 0.00068426)
(0.000869336 -0.0025916 0.000141962)
(0.00139235 -0.00310443 -0.000826481)
(-0.00158976 -0.0126482 -0.00189293)
(0.000130899 -0.00184423 0.00141938)
(0.00154289 -0.0111066 -5.99284e-05)
(0.00331375 -0.0298027 0.0106046)
(-0.00436021 -0.015008 0.00673285)
(0.000728099 -0.0167421 0.0121322)
(-0.000421697 0.000865995 0.00139981)
(-0.0022715 -0.0157293 0.00803164)
(-0.00271012 -0.00466625 0.00950958)
(8.78032e-05 0.00189675 0.00681135)
(-0.000472852 0.00123742 0.00619006)
(-0.000793823 -0.0030894 0.00231487)
(-8.00443e-05 0.000814125 8.97102e-05)
(-0.00637312 -0.0262873 0.0230344)
(0.00540338 -0.0248013 0.00600887)
(0.0116123 -0.0475187 0.00852485)
(-0.018747 -0.0210621 -0.0334219)
(0.000599637 -0.0030016 0.0013489)
(3.90147e-05 0.00110927 0.000170852)
(0.0105743 -0.0262662 -0.00188261)
(0.00244719 -0.0165425 0.0143798)
(0.000334928 -0.0350334 0.0128558)
(0.0195966 -0.0344194 0.00210355)
(0.000247108 -0.00598169 0.000212706)
(0.00149315 -0.0206041 0.0172881)
(0.000129284 0.000295713 0.000249053)
(-0.0136848 -0.00745573 0.0299959)
(-6.65324e-06 -0.00264152 -0.00318169)
(-0.000328144 -0.0046247 0.000991965)
(7.10185e-05 -0.00512334 -0.00350144)
(-0.000953156 -0.00574552 0.00191841)
(-0.000361514 -0.00376362 0.000837988)
(-0.000177673 -0.00885008 -0.000362338)
(0.00018661 -0.00767271 -0.000337915)
(-0.0165696 -0.0538288 0.00907541)
(-0.0234003 -0.0724712 0.0184937)
(-0.0176421 -0.0532998 0.0106935)
(0.0149529 -0.0509474 0.00524607)
(0.0137159 -0.0508606 0.00729148)
(0.0140332 -0.0504361 0.00677749)
(0.000365698 0.00116591 -0.00024486)
(-0.0306752 -0.0668386 -0.0498098)
(-0.00140029 -0.000867056 0.00372149)
(0.000225356 -0.00307487 0.00140808)
(0.00126947 -0.00482633 0.00280111)
(0.000528168 0.00070666 -0.0005084)
(0.000303571 0.000404186 -0.00021567)
(0.00742209 -0.0207481 0.00171598)
(0.000174164 -0.0014265 -0.00123254)
(0.00307018 -0.00918613 0.00206871)
(-0.000397442 -0.0101754 0.00351351)
(-0.00345762 -0.00983868 0.0141696)
(-0.00123908 -0.01007 -0.00155374)
(-0.000746448 -0.00662025 -0.00216646)
(-0.00155759 -0.0130298 0.00130806)
(-0.00574135 -0.0345864 0.00796642)
(-0.00295784 -0.0319903 0.00985773)
(-0.00594729 -0.0349344 0.0104966)
(-0.00218714 -0.0114458 -0.00229623)
(-0.0187164 -0.029256 -0.0177486)
(-0.00272935 -0.0438702 0.0106021)
(-0.00448797 -0.0443367 0.00721213)
(-0.00323639 -0.044423 0.00607137)
(-0.00592276 -0.0476 0.00904202)
(-0.000139543 -0.00102124 -0.00111673)
(-0.000513002 -0.0034323 0.000361124)
(-0.00887409 -0.0223697 -0.0304367)
(0.00610244 -0.0291699 0.0286907)
(-0.0127923 -0.0241835 -0.0198512)
(-0.0164451 -0.0279134 -0.0206307)
(0.000379557 -0.00787366 -0.0019679)
(0.00790495 -0.0242475 0.0207553)
(0.00291511 -0.00738495 0.00110169)
(-0.000324496 -0.00266114 0.000310751)
(0.000316871 -0.00288869 -0.000106012)
(-0.000359653 -0.00575221 0.000174229)
(-0.000236457 -0.00379251 0.000423529)
(-0.000179283 -0.000406672 0.00208629)
(0.00516378 -0.036102 0.0249958)
(-0.00135606 -0.0112705 0.00293826)
(-0.00219827 -0.0221217 0.0085755)
(-0.00762846 -0.0037172 0.0110537)
(-0.000535171 -0.00945731 -0.000208665)
(0.000169301 0.000341401 0.000200809)
(-0.000309714 -0.00179429 -0.000519616)
(-0.000572548 -0.00290357 -0.00189917)
(-0.00143004 -0.00736681 -0.000577293)
(-0.000669103 -0.00220222 -0.00119632)
(0.00084444 -0.00115302 -0.0015078)
(-0.000697985 -0.0723373 0.00255797)
(-0.00287269 -0.042171 0.00128854)
(-0.00425946 -0.067183 0.00485125)
(-0.00707776 -0.0714102 0.002219)
(-5.05447e-06 0.000730743 0.00141437)
(-0.00753521 -0.0150529 0.00109886)
(0.00594774 0.00792125 -0.00286675)
(-0.00819776 -0.0143107 0.00563913)
(7.55934e-05 -0.000693887 -0.00048383)
(0.000111727 0.000237451 0.00118645)
(0.00529728 -0.00162025 -0.00529778)
(0.000707637 0.00132035 0.000661727)
(-0.0120758 -0.0221935 0.00115404)
(-0.000587276 -0.0138273 -0.00101874)
(-3.56413e-05 -0.000552671 0.000291023)
(0.00189754 -0.0107142 0.00993981)
(0.000421932 0.000819118 -0.00126082)
(0.00111597 -0.002444 0.00166288)
(0.0101026 0.0119457 0.00357432)
(0.216671 -0.250993 1.17974)
(0.0103237 -0.0246174 0.000317582)
(-0.00068312 -0.00137127 0.00399123)
(0.00014681 -0.00279594 0.002526)
(0.000224724 -0.00162329 0.00101)
(-0.00039996 -0.0165172 -0.000978087)
(-0.00106796 0.00133611 0.00253154)
(-0.00506427 -0.0172368 -0.00113764)
(-0.0094582 -0.0297019 -0.000837479)
(-2.36245e-05 0.000201196 8.66556e-05)
(-1.50737e-05 0.000210176 7.95568e-05)
(0.00170681 -0.00872628 0.00830971)
(-0.000180257 0.000221325 -0.000961317)
(-0.00147839 -0.0101575 -0.00157837)
(-0.00308686 -0.000590732 0.000795415)
(-0.00298106 0.000350728 -0.00135166)
(-0.000558602 0.000235 -0.00122356)
(-0.000649124 -0.000613461 -0.00112429)
(-0.00414831 -0.0152013 -0.00139289)
(-0.000354841 -0.00385753 0.00202025)
(0.00179302 0.0017801 -0.00357082)
(-0.00173509 -0.00493522 8.44328e-05)
(-0.000602037 -0.00439738 0.00254664)
(-0.00057155 -0.00551242 0.00241047)
(0.000365207 -0.00319376 0.000535537)
(4.21581e-05 -1.82598e-05 -0.000118797)
(0.000175005 -0.00471277 0.000748884)
(0.00166886 -0.0479001 -0.000699381)
(-0.00704555 -0.0165678 0.00222093)
(-0.000159136 0.000235718 0.000262551)
(0.00112211 -0.00130481 0.00116355)
(-0.000453006 0.000791677 0.000518089)
(-0.000228315 -5.73618e-05 0.00184353)
(0.00179148 -0.00749428 0.00388794)
(0.00780228 -0.0355706 -0.00351596)
(0.00177377 -0.0421937 0.00139681)
(-0.00286054 -0.00985804 0.00183854)
(-0.00145835 -0.0295177 -0.000532215)
(0.000182405 -0.00307086 0.00150151)
(0.00183667 -0.0547975 -7.45927e-05)
(-3.52381e-05 6.57856e-05 -0.000201181)
(0.0120622 -0.047398 0.0114409)
(-0.000252043 0.000332592 0.000272146)
(0.00344726 -0.0154481 -0.000166381)
(0.000611478 -0.0131842 -0.00167181)
(0.0019678 -0.0115312 -0.000586566)
(0.00186725 -0.0146582 0.000380875)
(0.000156574 0.000293751 0.000301609)
(0.00149138 -0.00508242 -0.000206588)
(0.00836514 -0.00979778 -0.0165891)
(-0.00177919 -0.00106633 3.56227e-06)
(-0.000615749 0.000191326 0.00148717)
(0.00609023 -0.0443316 0.0259354)
(-0.00720847 -0.0305059 0.0302666)
(-0.000358571 -0.00310688 -9.96836e-06)
(0.000398689 -0.00382298 0.000335762)
(0.00923086 -0.042455 -0.0568393)
(-0.000352134 -0.000635071 0.000253428)
(0.000612724 0.000586583 -0.000327131)
(0.00121988 0.0015342 -0.000875033)
(0.018522 -0.0113642 -0.0142593)
(-0.00100309 0.00206515 -0.0036388)
(-0.00218865 0.000778703 -0.00261037)
(0.000397707 0.00046749 0.00159075)
(-0.000113534 0.000129559 0.000315281)
(1.65547e-07 -5.18367e-05 0.000311964)
(-0.00391188 -0.0121016 0.00541398)
(-0.00172992 -0.00191023 -0.000302727)
(0.000980482 -0.0032655 0.00210458)
(0.00375458 -0.00718261 -0.013468)
(-7.83064e-05 0.000519204 0.00106196)
(-0.00219091 -0.000512823 0.00362217)
(-0.00851379 -0.0112672 -0.0206116)
(0.000548647 -0.000980645 -0.0002745)
(0.0205382 -0.0449859 -0.132222)
(-0.00259136 0.00363903 0.00931161)
(-2.26368e-05 0.000370942 0.000192945)
(-0.000541844 0.000868532 0.000846478)
(0.00250368 -0.0258284 0.00382866)
(-0.0494779 -0.0682628 -0.0485189)
(-0.00163888 -0.0275664 0.00324843)
(-7.99973e-05 0.000591776 0.00134476)
(0.00705423 -0.0274356 0.00578949)
(-0.0179425 -0.0280641 -0.0160211)
(9.63877e-08 9.92288e-06 -2.63643e-06)
(-0.000611791 -0.0251933 0.00302316)
(-0.00413772 -0.0266414 0.00474272)
(-0.0145908 -0.0335806 -0.0229671)
(-3.84686e-05 0.000897382 0.000167846)
(-0.000253877 0.00127367 -9.01636e-07)
(-0.000147144 0.000960761 -0.000342877)
(-0.00539867 -0.0312006 -0.0269943)
(0.00688252 -0.0202548 0.0148071)
(-0.0163266 -0.0306147 -0.0176426)
(0.0237088 -0.0439534 -0.0818147)
(0.00943228 -0.050081 -0.100755)
(0.0194879 -0.0437037 -0.0946313)
(-0.0271224 -0.0324549 -0.0410565)
(0.000919305 -0.00207408 0.00835932)
(0.00080703 0.00209143 -0.00029516)
(0.00212117 -0.00235556 0.00668496)
(0.000500545 -5.79826e-05 0.00700718)
(-0.000608597 -0.00109024 0.0114143)
(0.000845335 -0.00226463 0.010359)
(-0.00412098 -0.0387825 -0.00273924)
(-0.00058189 0.000135246 0.00192763)
(0.000685388 0.00155065 -0.00224715)
(-6.47827e-05 0.000541527 -0.000302581)
(0.00652769 -0.0201559 0.0136938)
(-2.92883e-06 -0.000255411 0.000116325)
(0.0135158 -0.0144552 -0.0191245)
(0.000272912 0.000825791 0.00222055)
(0.0136345 -0.00821269 -0.0130768)
(0.00935394 -0.00432056 -0.0139998)
(-3.13022e-05 8.55986e-05 6.86954e-05)
(-0.00163546 -0.0250137 0.00225348)
(0.00479222 -0.0425105 -0.00117026)
(-7.16779e-05 8.02016e-05 8.70715e-05)
(-0.00040683 0.000663697 -0.000671549)
(0.000597619 0.00254509 -0.0012125)
(0.0208287 -0.0571038 -0.000282052)
(0.0212682 -0.0534105 0.0130684)
(0.0291997 -0.0569829 0.0112136)
(0.0276015 -0.0528343 0.00362443)
(-0.000241225 -0.00963012 -0.000671954)
(0.00234334 -0.0148415 0.00926151)
(0.001852 -0.0481076 0.00159683)
(0.0162688 -0.0603912 0.0166295)
(0.00489748 -0.0639144 0.0187473)
(0.00382288 -0.0152606 0.00945614)
(0.00207659 -0.0241622 -0.00502125)
(0.00263614 -0.026253 -0.00687989)
(-0.00317065 -0.00294054 0.00445885)
(-0.000332163 0.000659634 -0.000311171)
(0.0025494 -0.0248162 -0.00416832)
(-0.00372301 -0.0608384 -0.00328477)
(-0.00154141 -0.0397925 0.000168639)
(-0.000310954 0.00059213 0.00017301)
(-6.31941e-05 -0.00148935 -0.00115162)
(0.000812817 0.00126328 -9.88022e-05)
(0.000745767 0.00099426 -0.00080926)
(-0.000452141 -0.0156324 0.00480585)
(0.000774335 -0.0279754 0.000786936)
(0.00105661 -0.0203634 0.000487946)
(-2.84532e-05 1.52694e-05 1.39379e-05)
(0.00195184 -0.0252592 -0.000632788)
(-1.49747e-05 0.000105707 2.75827e-05)
(-0.00778825 -0.0629146 0.00666921)
(-0.00059351 -0.000134073 -0.001806)
(-0.000824504 -0.000470049 -0.000818021)
(-0.000308953 -0.0009178 -0.000957526)
(-0.000761326 -0.000866836 -0.00184478)
(0.000740278 -0.0217074 0.013866)
(0.130147 -0.0713589 0.240973)
(-0.000142745 -0.00132202 -0.00116782)
(-0.000227887 -0.00127107 -0.00118151)
(-0.00042433 0.00102279 0.00125498)
(-0.00212908 -0.0116695 -0.00289312)
(-3.36653e-05 -0.000164497 0.000383054)
(1.42959e-05 -0.0303019 0.00151753)
(-0.00228961 -0.025963 0.00499692)
(0.00214605 -0.0317465 0.00323938)
(0.00107323 -0.0297394 0.00466591)